# p  FACE_DATA 192
# x y z  p
-0.852065 0 0.084 34.9467
-0.758669 0 0.084 33.1127
-0.666528 0 0.084 32.28
-0.577755 0 0.084 31.8414
-0.494161 0 0.084 31.6745
-0.417123 0 0.084 32.0016
-0.347527 0 0.084 33.2285
-0.285777 0 0.084 36.0909
-0.231861 0 0.084 40.9464
-0.185442 0 0.084 49.3381
-0.145958 0 0.084 60.4322
-0.112718 0 0.084 76.2476
-0.0849786 0 0.084 94.3177
-0.0619968 0 0.084 116.508
-0.0430716 0 0.084 138.819
-0.0275644 0 0.084 162.967
-0.0149098 0 0.084 182.756
-0.00461741 0 0.084 193.44
0.00419702 0.000766028 0.084 210.547
0.0125357 0.00316131 0.084 214.748
0.020697 0.00703868 0.084 204.877
0.0287378 0.0118384 0.084 161.353
0.0369106 0.0169584 0.084 77.8163
0.0454949 0.0218397 0.084 -26.5067
0.0545791 0.0261932 0.084 -105.23
0.0640348 0.0301041 0.084 -167.53
0.073747 0.0336505 0.084 -232.543
0.0836619 0.0367804 0.084 -283.271
0.0937079 0.0394943 0.084 -313.729
0.103801 0.0418542 0.084 -335.494
0.113865 0.0439189 0.084 -352.521
0.123836 0.0457307 0.084 -366.922
0.133659 0.0473208 0.084 -380.258
0.143283 0.0487086 0.084 -393.577
0.152668 0.0499022 0.084 -405.694
0.161776 0.0509097 0.084 -416.094
0.170574 0.0517418 0.084 -424.842
0.179037 0.0524109 0.084 -432.086
0.187142 0.0529292 0.084 -437.85
0.194874 0.0533091 0.084 -442.186
0.202221 0.0535615 0.084 -444.715
0.209178 0.0537006 0.084 -445.142
0.215742 0.0537414 0.084 -444.978
0.221915 0.0536951 0.084 -443.079
0.227704 0.0535737 0.084 -440.34
0.233115 0.0533864 0.084 -436.009
0.238162 0.0531431 0.084 -430.387
0.242854 0.0528508 0.084 -423.688
0.247208 0.0525148 0.084 -414.002
0.251238 0.0521445 0.084 -402.477
0.254961 0.0517487 0.084 -389.454
0.258394 0.0513336 0.084 -374.993
0.261552 0.0509022 0.084 -358.95
0.264452 0.0504548 0.084 -339.927
0.26711 0.0499959 0.084 -317.706
0.269543 0.0495338 0.084 -294.772
0.271766 0.0490638 0.084 -272.203
0.273786 0.0485651 0.084 -248.277
0.275654 0.048005 0.084 -227.58
0.277448 0.047345 0.084 -214.343
0.279191 0.0465595 0.084 -207.371
0.280869 0.0456436 0.084 -204.278
0.282484 0.0446191 0.084 -202.4
0.284048 0.043518 0.084 -201.272
0.285572 0.0423617 0.084 -199.97
0.287066 0.0411661 0.084 -198.86
0.28854 0.0399453 0.084 -198.369
0.290003 0.0387101 0.084 -198.26
0.291459 0.0374674 0.084 -198.267
0.292915 0.0362241 0.084 -198.327
0.294379 0.034989 0.084 -198.417
0.295851 0.0337636 0.084 -198.548
0.297328 0.0325435 0.084 -198.636
0.298809 0.0313277 0.084 -198.748
0.300298 0.0301204 0.084 -198.816
0.301799 0.0289276 0.084 -198.923
0.303316 0.0277545 0.084 -199.009
0.30485 0.0266025 0.084 -199.111
0.306399 0.025471 0.084 -199.204
0.307964 0.0243595 0.084 -199.279
0.309545 0.0232695 0.084 -199.354
0.311143 0.0222041 0.084 -199.428
0.312759 0.0211654 0.084 -199.506
0.314394 0.0201548 0.084 -199.584
0.316048 0.0191738 0.084 -199.662
0.31772 0.0182234 0.084 -199.746
0.319411 0.0173045 0.084 -199.827
0.32112 0.0164182 0.084 -199.921
0.322847 0.0155651 0.084 -200.011
0.324591 0.0147463 0.084 -200.119
0.326353 0.0139622 0.084 -200.231
0.32813 0.0132125 0.084 -200.353
0.329922 0.0124967 0.084 -200.48
0.331728 0.0118135 0.084 -200.611
0.333547 0.0111615 0.084 -200.732
0.335378 0.0105398 0.084 -200.857
0.337219 0.00994805 0.084 -200.986
0.339071 0.00938518 0.084 -201.113
0.340933 0.00884961 0.084 -201.244
0.342802 0.00833907 0.084 -201.351
0.344679 0.00785224 0.084 -201.462
0.346564 0.00738844 0.084 -201.564
0.348455 0.00694656 0.084 -201.667
0.350352 0.00652531 0.084 -201.764
0.352254 0.00612293 0.084 -201.853
0.354162 0.00573753 0.084 -201.926
0.356074 0.00536753 0.084 -201.986
0.35799 0.00501177 0.084 -202.027
0.35991 0.00466962 0.084 -202.061
0.361834 0.00434056 0.084 -202.084
0.363762 0.00402386 0.084 -202.096
0.365693 0.00371876 0.084 -202.096
0.367628 0.00342427 0.084 -202.076
0.369566 0.00313945 0.084 -202.029
0.371506 0.00286376 0.084 -201.956
0.37345 0.00259699 0.084 -201.849
0.375397 0.00233956 0.084 -201.722
0.377347 0.00209211 0.084 -201.572
0.3793 0.00185491 0.084 -201.401
0.381256 0.00162794 0.084 -201.181
0.383215 0.00141185 0.084 -200.932
0.385178 0.00120824 0.084 -200.654
0.387143 0.00101907 0.084 -200.382
0.389113 0.00084588 0.084 -200.084
0.391086 0.000690183 0.084 -199.804
0.393062 0.000553449 0.084 -199.514
0.395042 0.000436888 0.084 -199.264
0.397025 0.000341007 0.084 -199.014
0.399011 0.000265448 0.084 -198.792
0.400999 0.000209332 0.084 -198.569
0.402991 0.000170833 0.084 -198.373
0.404985 0.000145822 0.084 -198.127
0.406981 0.000127167 0.084 -197.702
0.408979 0.000109171 0.084 -197.087
0.41098 9.08014e-05 0.084 -196.334
0.412983 7.22229e-05 0.084 -195.53
0.414989 5.09948e-05 0.084 -194.502
0.416997 2.61402e-05 0.084 -193.15
0.419008 6.53116e-06 0.084 -192.029
0.421022 0 0.084 -191.193
0.423046 0 0.084 -189.98
0.425094 0 0.084 -188.675
0.427182 0 0.084 -187.209
0.429327 0 0.084 -185.609
0.431546 0 0.084 -183.846
0.433856 0 0.084 -181.912
0.436275 0 0.084 -179.775
0.438823 0 0.084 -177.413
0.44152 0 0.084 -174.793
0.444387 0 0.084 -171.874
0.447447 0 0.084 -168.629
0.450723 0 0.084 -164.994
0.454243 0 0.084 -160.953
0.458033 0 0.084 -156.429
0.462124 0 0.084 -151.395
0.466548 0 0.084 -145.782
0.471341 0 0.084 -139.569
0.476539 0 0.084 -132.66
0.482184 0 0.084 -125.057
0.488321 0 0.084 -116.644
0.494998 0 0.084 -107.462
0.502268 0 0.084 -97.529
0.510189 0 0.084 -86.9408
0.518823 0 0.084 -75.8043
0.528239 0 0.084 -64.2904
0.538511 0 0.084 -52.6274
0.54972 0 0.084 -41.1083
0.561955 0 0.084 -30.087
0.575312 0 0.084 -19.943
0.589898 0 0.084 -11.0299
0.605828 0 0.084 -3.65371
0.623227 0 0.084 2.02512
0.642233 0 0.084 6.01266
0.662998 0 0.084 8.40697
0.685684 0 0.084 9.40609
0.710471 0 0.084 9.35363
0.737556 0 0.084 8.6484
0.767152 0 0.084 7.54885
0.799494 0 0.084 6.27541
0.834838 0 0.084 5.08538
0.873462 0 0.084 4.00012
0.915673 0 0.084 3.12041
0.961805 0 0.084 2.41536
1.01222 0 0.084 1.8999
1.06732 0 0.084 1.51096
1.12754 0 0.084 1.23848
1.19336 0 0.084 1.02359
1.26529 0 0.084 0.854148
1.34391 0 0.084 0.670046
1.42984 0 0.084 0.428679
1.52375 0 0.084 0.110866
1.6264 0 0.084 -0.100617
