/*--------------------------------*- C++ -*----------------------------------*\
| =========                 |                                                 |
| \\      /  F ield         | OpenFOAM: The Open Source CFD Toolbox           |
|  \\    /   O peration     | Version:  2212                                  |
|   \\  /    A nd           | Website:  www.openfoam.com                      |
|    \\/     M anipulation  |                                                 |
\*---------------------------------------------------------------------------*/
FoamFile
{
    version     2.0;
    format      ascii;
    arch        "LSB;label=32;scalar=64";
    class       volScalarField;
    location    "15000";
    object      p;
}
// * * * * * * * * * * * * * * * * * * * * * * * * * * * * * * * * * * * * * //

dimensions      [0 2 -2 0 0 0 0];

internalField   nonuniform List<scalar> 
3584
(
0.16893072
0.45005713
0.11702064
0.60909676
0.44211782
0.13585213
0.69262801
0.79325892
0.47185506
0.14234423
0.74682067
1.0334532
0.96934113
0.40711108
0.13366108
0.77040292
1.1933213
1.4170003
0.91795621
0.33125713
0.12606922
0.7782427
1.2781772
1.7532121
1.6041024
0.77509615
0.2796148
0.12179808
0.78440475
1.3013733
2.017248
2.3767541
1.4705327
0.6445627
0.24751853
0.11924598
0.79147864
1.3062504
2.1386066
3.1123198
2.4961583
1.2109285
0.55344663
0.22821683
0.11759087
0.79896903
1.309732
2.1521697
3.6932337
3.6364134
2.1919605
1.0015533
0.49863356
0.21695333
0.11655312
0.80652335
1.3135794
2.1560364
3.8793585
4.774428
3.6725743
1.8087997
0.87251851
0.46712393
0.21046894
0.11593914
0.81402827
1.3174108
2.1624663
3.9021898
5.7350624
5.5928478
3.2308705
1.5203768
0.79690418
0.4488523
0.20673271
0.11558486
0.82145032
1.3210755
2.1696377
3.9212257
5.9013918
7.8858228
5.4804024
2.6679588
1.3383944
0.75227088
0.43816715
0.20457271
0.11537999
0.82876894
1.3245148
2.1766315
3.9437086
5.9314874
9.6362461
8.4288848
4.6750749
2.2544825
1.2317872
0.72599479
0.43194936
0.20332382
0.11526093
0.83596446
1.3277017
2.1832136
3.9662332
5.9700501
9.8402617
11.763927
7.8366754
3.8765859
2.0088144
1.1701999
0.71071108
0.42835683
0.20260295
0.11519191
0.84301494
1.3306087
2.1893104
3.9882779
6.013298
9.9335117
14.293287
12.577864
6.679759
3.3317457
1.8683714
1.1343798
0.70188886
0.42628552
0.20218732
0.11515213
0.84989562
1.3332067
2.1948665
4.0095326
6.055918
10.036757
14.509386
18.400805
11.449518
5.5927104
3.0045264
1.7865091
1.113525
0.6967997
0.42509014
0.20194783
0.11512931
0.85657858
1.3354626
2.1998269
4.0298938
6.0975148
10.143168
14.687681
22.146609
18.634155
9.5759361
4.8602335
2.8149259
1.7384486
1.101447
0.69385975
0.42440006
0.20180993
0.11511626
0.86303205
1.3373393
2.2041296
4.0492167
6.1376427
10.248264
14.883967
22.614607
26.460149
16.203226
8.0752127
4.4325187
2.7050472
1.7104983
1.0944788
0.69216133
0.42400217
0.20173071
0.11510885
0.86921968
1.3387949
2.2077058
4.0673595
6.1761544
10.351594
15.081989
22.995657
31.311683
26.624864
13.549648
7.1346987
4.1879608
2.6411195
1.6943807
1.0904594
0.69118138
0.42377323
0.20168537
0.1151047
0.87510013
1.3397822
2.2104784
4.0841632
6.2128457
10.452587
15.278151
23.402079
32.112053
38.509541
22.943816
11.591437
6.5824003
4.0454818
2.6040138
1.6850955
1.0881391
0.69061673
0.42364183
0.20165961
0.11510243
0.88062595
1.3402472
2.2123608
4.0994515
6.2475097
10.550823
15.471303
23.805359
32.80269
45.560361
37.353371
19.158275
10.369553
6.2594118
3.9619989
2.5825694
1.679735
1.0867998
0.6902918
0.42356673
0.20164512
0.11510125
0.8857426
1.340129
2.2132558
4.113026
6.2798921
10.645755
15.660641
24.206464
33.525185
47.236781
52.199232
31.380518
16.573561
9.6531727
6.0703463
3.9134919
2.5701993
1.6766383
1.0860275
0.69010525
0.42352413
0.20163717
0.1151007
0.89038724
1.3393582
2.2130533
4.124664
6.3097062
10.736796
15.845356
24.602487
34.239831
48.571542
61.471255
50.278304
26.419836
15.030663
9.2364554
5.9602913
3.8855128
2.5630624
1.6748511
1.0855826
0.68999856
0.42350031
0.20163298
0.11510051
0.89448742
1.3378553
2.2116296
4.1341147
6.3366283
10.823309
16.024563
24.99239
34.949733
49.922677
64.504476
71.730755
42.536815
23.256977
14.125711
8.9934121
5.8966284
3.8693925
2.5589441
1.6738212
1.0853269
0.689938
0.42348731
0.20163096
0.11510053
1.33553
0.89795937
2.2088455
4.1410952
6.3602844
10.904623
16.197216
25.374461
35.650294
51.240577
67.062477
83.460258
66.912927
36.301756
21.384149
13.59421
8.8521842
5.8599042
3.8600936
2.5565697
1.6732282
1.0851803
0.68990407
0.42348057
0.2016302
0.11510068
2.2045425
1.3322787
0.90070605
4.1452884
6.3802553
10.979935
16.362031
25.746972
36.339722
52.538073
69.5689
88.574093
90.677284
56.737533
32.493807
20.289589
13.284631
8.7706098
5.8387299
3.8547315
2.5552028
1.6728874
1.0850967
0.68988551
0.42347744
0.20163017
0.11510089
4.1463364
2.198542
1.3279831
0.90261509
6.3960709
11.048304
16.517634
26.107989
37.015118
53.810691
71.954083
93.134101
103.32595
84.564425
49.550402
30.312351
19.651785
13.106045
8.7236349
5.8265299
3.8516463
2.5544176
1.6726921
1.0850495
0.68987582
0.42347641
0.20163055
0.11510114
6.4072014
4.1438369
2.1906417
1.3225075
0.90355615
11.108694
16.662741
26.455409
37.673442
55.057327
74.209732
97.720838
110.31943
111.41908
73.719925
45.343355
29.044161
19.282424
13.003378
8.6966008
5.8195151
3.8498769
2.5539681
1.6725809
1.0850232
0.68987127
0.42347657
0.20163118
0.11510142
11.159979
6.4130509
4.1373374
2.1806122
1.3156967
0.90337835
16.796188
26.786693
38.31112
56.273815
76.340108
102.28421
117.13101
124.62366
104.20709
66.224923
42.927787
28.300228
19.069715
12.944328
8.6810586
5.8154958
3.8488669
2.5537124
1.6725181
1.0850091
0.68986967
0.42347745
0.20163195
0.11510172
16.9165
11.200891
6.4129485
4.1263294
2.1681943
1.3073727
0.90190731
27.098556
38.924172
57.455364
78.363853
106.77677
124.06115
133.53138
130.07688
93.615172
61.880454
41.50955
27.867844
18.947471
12.910371
8.6721501
5.8132055
3.848295
2.5535685
1.6724834
1.085002
0.6898698
0.42347873
0.20163283
0.11510203
27.387352
17.021834
11.230017
6.406139
4.1102427
2.153094
1.2973322
0.8989417
39.508261
58.596196
80.29899
111.06077
130.98685
142.48102
142.86186
125.10899
86.639059
59.382299
40.675295
27.61918
18.877249
12.8909
8.6670719
5.8119127
3.8479759
2.5534892
1.6724647
1.0849989
0.6898709
0.42348028
0.20163375
0.11510237
40.058538
27.649378
17.110131
11.245783
6.3917724
4.0884381
2.1349803
1.2853431
0.89425082
59.68971
82.156223
114.97845
137.78852
151.84197
152.61649
148.93077
117.30879
82.560443
57.911054
40.191706
27.476679
18.836982
12.87979
8.6642036
5.8111955
3.8478027
2.5534471
1.6724555
1.0849981
0.68987263
0.42348196
0.20163477
0.11510278
60.728605
40.569285
27.880499
17.179028
11.246433
6.3688928
4.0602017
2.113479
1.2711411
0.88757127
83.936882
118.45559
144.422
161.59658
162.47425
159.3802
148.50842
111.71348
80.205747
57.047615
39.914638
27.395045
18.813991
12.873503
8.6626098
5.8108103
3.8477137
2.5534266
1.6724515
1.0849988
0.68987466
0.42348385
0.20163592
0.11510322
85.635406
61.705301
41.034122
28.076116
17.225901
11.230025
6.3364269
4.0247394
2.08817
1.254427
0.87860542
121.53436
150.94026
171.74408
172.82877
167.69603
165.85715
144.74223
108.40841
78.830363
56.549884
39.756415
27.348405
18.800963
12.869993
8.6617512
5.8106169
3.8476734
2.5534183
1.6724508
1.0850001
0.68987708
0.42348605
0.20163711
0.11510342
124.30803
87.243322
62.6117
41.447127
28.231274
17.247819
11.19441
6.2931726
3.981172
2.0585836
1.2348637
0.86702053
157.39718
182.22342
183.71814
176.19756
172.31541
170.71406
141.55323
106.54345
78.029212
56.266283
39.666166
27.321952
18.793674
12.868086
8.6613164
5.8105342
3.847661
2.5534173
1.6724516
1.0850021
0.68988003
0.42348826
0.20163774
0.11510352
163.65912
126.85879
88.751791
63.437696
41.803311
28.340669
17.241539
11.137228
6.2377883
3.9285328
2.0241978
1.2120749
0.85245056
192.87295
195.25438
185.12257
177.45404
177.0347
172.43509
139.62994
105.46926
77.568901
56.105168
39.614961
27.307135
18.789691
12.867102
8.661127
5.810515
3.8476652
2.55342
1.6724539
1.0850051
0.68988261
0.42348915
0.20163806
0.11510369
203.4535
169.37354
129.23961
90.151191
64.170888
42.096403
28.398575
17.203482
11.055908
6.1687871
3.8657705
1.9844382
1.1856459
0.83450055
207.48791
194.54474
183.08678
178.31522
182.82674
173.04765
138.56248
104.84403
77.307444
56.013874
39.586248
27.299018
18.787613
12.866652
8.6610779
5.8105337
3.8476777
2.5534262
1.6724582
1.0850066
0.68988242
0.42348929
0.20163843
0.11510386
220.42112
213.7718
174.28165
131.47964
91.429587
64.799738
42.318676
28.398884
17.129733
10.947678
6.0845329
3.7917546
1.9386803
1.1551257
0.81275504
204.57005
189.20353
179.58654
177.70443
188.22035
173.37074
137.95727
104.48458
77.159828
55.962604
39.570482
27.294753
18.786635
12.866507
8.6611127
5.8105719
3.8476984
2.5534367
1.6724586
1.0850022
0.6898809
0.42348955
0.2016388
0.11510397
215.25225
233.99382
223.80092
178.46347
133.59116
92.574714
65.314087
42.461917
28.335157
17.016056
10.809583
5.983245
3.7052912
1.8862557
1.1200348
0.78679116
195.96561
181.75278
174.14021
176.81957
192.18399
173.55611
137.60847
104.2814
77.077008
55.934343
39.562156
27.292713
18.786288
12.866545
8.6611909
5.8106291
3.8477296
2.553438
1.6724458
1.0849955
0.68987973
0.42348977
0.20163887
0.11510398
203.35147
226.6208
248.1084
233.63821
182.15507
135.5713
93.580291
65.702896
42.517345
28.200678
16.857906
10.638522
5.8630118
3.605145
1.8264633
1.0798761
0.75619611
184.85268
172.17029
165.56824
179.59652
194.63389
173.67033
137.40973
104.16787
77.031178
55.919295
39.558111
27.291948
18.786314
12.866678
8.6613106
5.8107114
3.847741
2.5534095
1.6724285
1.0849897
0.6898783
0.42348921
0.20163848
0.11510388
188.90846
211.22209
238.70084
262.62171
243.45695
185.53726
137.40109
94.442211
65.95486
42.475721
27.988524
16.65047
10.431297
5.7218139
3.4900725
1.7585875
1.0341522
0.72058908
171.93263
159.02453
155.92535
182.8669
196.05656
173.74352
137.29876
104.10511
77.006539
55.911834
39.556528
27.291936
18.78654
12.866898
8.66149
5.8107525
3.847684
2.5533714
1.6724134
1.0849831
0.6898749
0.42348727
0.20163735
0.11510359
173.27233
193.66811
219.42675
251.4679
277.30466
253.31085
188.69523
139.05697
95.15016
66.058305
42.327339
27.691625
16.388721
10.184678
5.5575616
3.3588638
1.681921
0.98238791
0.67964566
156.29762
143.62212
152.22574
185.17259
196.88929
173.78873
137.23788
104.07121
76.994044
55.908734
39.556387
27.292335
18.786941
12.867254
8.6615871
5.8106401
3.8476043
2.553338
1.672396
1.0849717
0.68986812
0.42348324
0.20163501
0.11510294
156.12667
175.6698
198.8067
227.70077
264.72019
291.7674
262.84265
191.66948
140.51991
95.690388
66.001169
42.062041
27.302827
16.067461
9.8954695
5.368142
3.2103934
1.5957951
0.92415865
0.63312423
138.39592
127.88433
151.62307
186.63368
197.36866
173.815
137.20527
104.05378
76.988541
55.908169
39.557054
27.293079
18.78765
12.867448
8.6613506
5.8104735
3.847535
2.5532984
1.6723673
1.0849523
0.68985622
0.42347566
0.20163048
0.11510164
137.78046
157.25134
178.6433
203.9693
235.81027
277.96554
305.54424
271.424
194.51192
141.77304
96.047704
65.770914
41.66921
26.814934
15.681398
9.5605856
5.1514776
3.0436753
1.4996132
0.85912408
0.58089101
119.08977
116.63843
151.84463
187.53288
197.62549
173.83023
137.18862
104.04588
76.987034
55.909067
39.558364
27.294532
18.788053
12.866941
8.6609926
5.8103284
3.8474514
2.5532328
1.6723204
1.0849209
0.68983565
0.42346184
0.20162218
0.11509926
119.99785
139.80078
159.24104
181.87867
209.14417
244.03985
291.04694
318.32304
278.80618
197.26358
142.79793
96.204816
65.354408
41.137738
26.220728
15.225196
9.1771278
4.9055947
2.8579213
1.3928925
0.78706638
0.52293904
100.16207
111.08437
152.22642
188.06013
197.74984
173.84179
137.18153
104.04326
76.9879
55.911025
39.56122
27.295435
18.787004
12.866173
8.6606787
5.8101506
3.8473092
2.5531255
1.6722458
1.084869
0.68979974
0.42343716
0.20160735
0.11509499
106.37011
124.93702
143.83438
162.59237
185.38963
214.67373
252.98341
305.07808
329.9529
285.3178
199.94097
143.57484
96.142353
64.737763
40.456004
25.512985
14.693552
8.7424495
4.6286969
2.6526014
1.2753097
0.70792535
0.45940034
87.720962
108.78207
152.52257
188.32558
197.81379
173.85429
137.17927
104.04365
76.990166
55.916221
39.563213
27.29334
18.785411
12.865493
8.660293
5.8098409
3.8470729
2.5529545
1.6721239
1.0847808
0.68973711
0.42339369
0.20158125
0.11508747
97.985863
115.48632
133.05557
150.87253
169.46789
191.52508
222.24455
262.949
321.31284
340.36136
291.45399
202.54062
144.08303
95.838735
63.906117
39.61182
24.684459
14.081242
8.2542237
4.3192566
2.4275063
1.1467446
0.62182097
0.39055928
81.43459
107.72688
152.51612
188.37256
197.87429
173.85895
137.17838
104.04477
76.99904
55.920451
39.55936
27.290117
18.784005
12.864654
8.659618
5.8093178
3.8466931
2.5526744
1.6719181
1.0846294
0.68962831
0.42331773
0.20153557
0.11507429
92.607726
111.77692
128.56348
144.67452
161.76111
181.40001
204.64848
236.378
278.33576
340.43405
350.73761
297.42521
205.02133
144.30156
95.270021
62.843365
38.592375
23.727851
13.383188
7.7105148
3.9761187
2.1828012
1.0073076
0.52907665
0.31687423
78.11088
106.76591
152.20774
188.28468
197.95712
173.85204
137.17343
104.05845
77.007809
55.91414
39.553276
27.287297
18.78228
12.863191
8.658472
5.8084681
3.8460663
2.5522008
1.6715662
1.0843687
0.68943964
0.42318546
0.201456
0.11505132
89.818346
110.49117
127.69819
142.86964
158.26304
176.03742
198.11149
224.91931
260.214
305.80971
365.28803
366.6624
303.02435
207.32326
144.20888
94.409591
61.531854
37.384148
22.635782
12.594556
7.1098737
3.598609
1.9190582
0.85737626
0.43027223
0.23896475
76.207464
105.72757
151.87736
188.31985
198.04537
173.83137
137.18931
104.07522
76.998531
55.90373
39.548002
27.283864
18.779269
12.860705
8.6566016
5.8070554
3.8450017
2.5513902
1.6709618
1.083919
0.68911254
0.42295561
0.20131772
0.11501137
88.49018
110.24301
127.55169
142.66049
157.5784
173.91433
193.89795
219.72394
251.72225
292.88225
344.14493
398.88014
390.68272
308.06976
209.3998
143.78248
93.227757
59.952094
35.972812
21.400809
11.710876
6.4514273
3.1866294
1.6373032
0.69768322
0.32627653
0.15749469
74.67285
105.05546
151.78322
188.45362
198.01154
173.84159
137.21525
104.06311
76.982288
55.894831
39.541584
27.277825
18.774144
12.856638
8.6534841
5.8046456
3.8431747
2.5499971
1.6699206
1.0831417
0.68854558
0.42255672
0.20107774
0.11494202
88.243375
110.30153
127.64122
142.62
157.58491
173.7105
192.53547
216.22455
247.1404
285.24858
332.72087
391.38837
442.28774
410.70932
312.45148
211.20977
142.99649
91.691237
58.082401
34.343222
20.015478
10.728149
5.7349783
2.740814
1.3391415
0.52937692
0.2180995
0.073093406
73.454772
104.95031
151.7453
188.54221
197.96358
173.85182
137.20257
104.04081
76.969052
55.883993
39.530158
27.267498
18.765757
12.84985
8.6481581
5.800499
3.8400301
2.5475963
1.6681224
1.0817968
0.68756302
0.42186495
0.20066152
0.11482166
87.733421
110.60434
127.76979
142.74885
157.61369
173.78784
192.59741
215.31735
244.1064
280.85865
325.38458
380.96329
448.84639
493.84207
420.3836
316.07024
212.69929
141.81798
89.762637
55.898347
32.479464
18.472299
9.6429724
4.9612391
2.2628444
1.0268365
0.35378798
0.10668416
-0.013201127
72.364713
104.90336
152.11452
188.67174
197.99289
173.82936
137.18205
104.0248
76.952895
55.864308
39.510456
27.250566
18.751753
12.838247
8.6389846
5.7933505
3.8346048
2.5434485
1.665012
1.0794682
0.68586028
0.42066556
0.19993985
0.11461276
85.925191
109.88927
127.99823
142.9302
157.76811
173.88106
192.75585
215.55112
243.42753
278.08545
320.92718
373.47744
440.91471
518.73351
545.9755
428.85326
318.7696
213.76106
140.20893
87.400626
53.372054
30.364595
16.763653
8.452966
4.1323609
1.7556758
0.7029792
0.17210553
-0.0066449291
-0.10014886
71.472693
105.35142
152.70033
188.72241
198.02528
173.83441
137.17023
104.00499
76.922426
55.829937
39.477991
27.222249
18.727794
12.818248
8.623156
5.7810014
3.825223
2.5362715
1.6596274
1.0754347
0.68290881
0.41858579
0.19868848
0.11425006
84.720863
108.21371
127.08188
143.09151
157.93602
174.06531
192.87541
215.75679
243.73075
277.36992
318.21977
368.74346
433.20105
516.67781
600.10957
579.79623
437.65001
320.2305
214.15587
138.12967
84.562424
50.471945
27.979897
14.882243
7.1577649
3.2523122
1.2230474
0.37007282
-0.013764335
-0.1204557
-0.18660974
71.664114
106.12595
152.73123
188.71342
198.03552
173.85875
137.15365
103.96512
76.868312
55.77284
39.42348
27.173705
18.686459
12.783719
8.5957941
5.7596276
3.8089768
2.5238413
1.6502994
1.0684447
0.67779193
0.41497907
0.19651803
0.113619
84.373608
107.23051
125.50518
142.06052
158.00419
174.22156
193.04883
215.87982
243.95972
277.66205
317.26277
365.87817
427.98087
509.38526
610.10208
683.00323
594.32177
445.35022
320.12121
213.47337
135.50786
81.206486
47.163276
25.304855
12.822542
5.7595335
2.3262318
0.66898438
0.031752543
-0.20152813
-0.23353138
-0.27182371
72.339893
106.25106
152.22492
188.63091
198.03664
173.88326
137.1178
103.89284
76.77755
55.676374
39.329715
27.089807
18.615036
12.724006
8.548403
5.7225665
3.7808024
2.5022948
1.6341332
1.0563247
0.6689109
0.40871417
0.19274813
0.11251875
106.98363
124.66916
140.55443
156.89867
174.22311
193.18858
216.04665
244.09117
277.94468
317.48092
364.48171
424.68711
503.57738
605.38673
717.25823
748.02812
602.94369
450.30809
318.86004
211.29918
132.15408
77.282533
43.408588
22.319351
10.580998
4.2615301
1.3602184
0.10040676
-0.30834618
-0.38912154
-0.34502124
-0.35518134
25.426284
72.313258
105.789
151.84167
188.49828
198.06402
173.90682
137.05026
103.77018
76.622925
55.509518
39.16702
26.944398
18.491263
12.620463
8.4661841
5.6582614
3.7319164
2.4649106
1.6060801
1.0352948
0.65350215
0.39784562
0.18620665
0.11059481
124.47822
139.80552
155.44612
173.0798
193.14256
216.17674
244.26026
278.10986
317.82544
364.52172
422.74801
499.686
599.41129
720.83009
828.30701
772.77966
606.88693
451.38905
316.71984
207.41201
127.73036
72.6953
39.165799
19.004258
8.1518041
2.6686152
0.36622741
-0.47517882
-0.64746932
-0.5750309
-0.45408942
-0.43595651
39.129271
25.38298
71.799397
105.71731
151.83439
188.51907
198.22184
173.93899
136.93244
103.55868
76.353275
55.218757
38.884581
26.692428
18.277047
12.441299
8.3236158
5.546395
3.64676
2.3999162
1.5574179
0.99880792
0.62667422
0.37882185
0.17470173
0.1071122
139.65089
154.75332
171.67485
191.98287
216.09363
244.38593
278.29142
318.02494
364.90668
422.4657
497.34348
595.06825
716.55462
850.5743
922.17867
779.81751
605.48256
447.52058
312.38542
201.51255
121.88739
67.270691
34.379629
15.331696
5.5266773
0.99919045
-0.64393468
-1.0517706
-0.98361366
-0.75799511
-0.55973006
-0.51339489
22.682607
39.120502
25.113425
71.700121
106.23593
152.06988
188.87624
198.63195
174.00036
136.72761
103.18657
75.880849
54.711515
38.391665
26.251872
17.902013
12.12739
8.0738469
5.3506812
3.4978562
2.2861929
1.4721473
0.93493664
0.57988914
0.34592215
0.15507921
0.10140335
154.6233
171.02384
190.61808
214.92657
244.27654
278.41877
318.21384
365.14673
422.82434
496.57624
592.44349
712.26268
852.14262
982.71902
966.49142
778.17777
597.86983
437.69721
303.5202
193.08618
114.2914
60.770464
28.958842
11.25346
2.7187621
-0.7286067
-1.6618468
-1.6241925
-1.3147477
-0.93658185
-0.66099483
-0.5867684
13.158816
22.703528
39.090088
23.995318
72.075385
107.07173
152.77003
189.69548
199.33386
174.12672
136.36392
102.51635
75.033042
53.806888
37.517725
25.476891
17.2507
11.588609
7.6458308
5.0120041
3.2373944
2.0871115
1.3241783
0.82535794
0.50016353
0.28958608
0.12112332
0.091315425
170.91177
189.99773
213.59852
243.11001
278.293
318.34261
365.34673
423.12583
496.75813
590.9682
709.23713
849.12104
998.94809
1092.7835
968.20995
768.15583
582.9659
421.11894
288.43193
181.14177
104.26873
52.857217
22.732005
6.7260389
-0.26640466
-2.5021239
-2.6779923
-2.1873684
-1.6383137
-1.1094029
-0.75704019
-0.65535246
1.1991452
13.171013
22.713106
39.018577
20.282948
72.381657
107.99899
154.21997
191.44819
200.72367
174.59092
135.88343
101.4667
73.678936
52.355421
36.104083
24.212107
16.172056
10.677812
6.9114033
4.4290323
2.7896491
1.7440247
1.0657724
0.63038506
0.35493928
0.18512809
0.056135001
0.07187058
189.89775
213.00313
241.81486
277.13201
318.2083
365.48312
423.35244
497.12209
590.73892
707.29737
846.2059
1000.3043
1141.3326
1148.7393
954.88698
748.23298
559.57138
397.14733
266.43599
164.10516
90.898542
42.942535
15.412508
1.6751861
-3.4365476
-4.2968273
-3.6801087
-2.7356948
-1.9517788
-1.2751614
-0.84706029
-0.71843235
-27.262297
1.2157714
13.175713
22.721732
38.919597
13.265481
71.954397
108.83589
156.23634
194.72956
203.77248
176.09681
135.67365
100.15855
71.643007
49.958494
33.624699
21.903382
14.181974
9.0315819
5.61895
3.4105013
1.9958935
1.121878
0.59056362
0.2717635
0.093980926
0.0030796665
-0.047571966
0.027709461
212.91327
241.2414
275.86659
317.0559
365.35049
423.50703
497.40004
591.07583
706.73167
844.30632
998.51617
1155.0178
1247.9996
1139.5884
928.06009
716.90413
526.51455
365.15193
237.4357
140.98437
73.448424
30.401324
6.6841381
-3.9868113
-6.7426184
-6.0716843
-4.6542116
-3.2639322
-2.2527279
-1.4325422
-0.93030058
-0.77535798
-70.232012
-27.241159
1.2225412
13.18022
22.741051
38.903602
7.7866728
68.923811
111.43133
157.01231
198.25236
207.55485
177.61871
134.47423
96.892781
66.968294
44.806692
28.597647
17.483558
10.526406
6.0635971
3.2749027
1.5662675
0.57907141
0.048562681
-0.19580334
-0.2918032
-0.29329635
-0.24661535
-0.17578413
-0.0053344229
241.15849
275.31096
315.81306
364.21303
423.38674
497.58018
591.42466
706.95044
843.32727
996.76314
1157.05
1288.6227
1287.3859
1104.9085
886.25445
672.67217
482.74279
324.53229
201.58473
111.95827
51.661224
15.115212
-3.5158306
-10.137672
-10.04569
-7.7793284
-5.5881282
-3.7673678
-2.5386494
-1.5802243
-1.0061426
-0.82560738
-133.33178
-70.210986
-27.229404
1.2310472
13.188158
22.818451
38.832121
13.243577
62.331917
112.32324
157.17011
199.2971
208.2026
175.45779
129.31155
89.457617
58.273298
35.997072
20.182809
9.9619262
4.0579677
0.7972497
-0.74218783
-1.37461
-1.5067586
-1.400805
-1.1825642
-0.94387081
-0.70780642
-0.48167521
-0.23355273
-0.10676149
275.2327
315.26993
362.99327
422.27541
497.47722
591.64508
707.35762
843.15995
995.65091
1156.4466
1301.4644
1357.0768
1256.0551
1050.2634
827.58942
614.22455
427.44369
274.92616
159.10375
77.825256
26.192675
-2.4203476
-14.747636
-16.360051
-13.171992
-9.3850173
-6.4724387
-4.2414472
-2.8069846
-1.7170132
-1.0741763
-0.86883252
-224.10654
-133.3094
-70.192039
-27.196734
1.2514996
13.218033
23.045639
38.428934
27.572729
63.123044
106.39821
156.77727
198.51917
205.02921
168.39943
118.53741
76.560223
44.200844
21.84125
6.1894127
-2.4512951
-6.1140547
-6.6211496
-5.8253037
-4.6790203
-3.5932801
-2.6811404
-1.9414732
-1.3720009
-0.90290512
-0.49398186
-0.28167241
315.19448
362.46143
421.08437
496.40366
591.57061
707.6432
843.45525
995.16331
1155.6334
1304.5671
1386.3931
1334.7284
1184.4352
973.87143
750.47895
540.58532
360.18046
216.29153
110.32702
39.64195
-1.6733853
-21.291214
-26.154839
-22.143315
-16.015693
-10.871281
-7.2993378
-4.6818756
-3.0554069
-1.8419656
-1.1342287
-0.90488403
-348.32343
-224.08612
-133.28121
-70.124149
-27.114173
1.3166553
13.335968
23.49566
38.274759
40.203855
78.65473
118.52688
162.88031
189.52808
174.8728
130.78484
86.857592
47.449321
17.650186
-0.38235423
-12.077754
-14.544123
-14.257682
-11.663685
-9.0872698
-6.5309644
-4.6913203
-3.1346907
-2.1168697
-1.303716
-0.73558907
-0.39624502
362.38748
420.56567
495.25461
590.55727
707.61038
843.78446
995.22275
1155.0836
1305.0159
1396.6166
1372.0243
1244.0818
1086.1249
874.02396
653.86099
451.25478
280.9314
148.96826
56.174389
-1.3872804
-30.831656
-40.318404
-36.769851
-27.16741
-18.557446
-12.229949
-8.0621954
-5.0850894
-3.2820769
-1.9544555
-1.1863573
-0.93381733
-504.33363
-348.30646
-224.0342
-133.16589
-69.959593
-26.984766
1.4832004
13.691348
24.508406
39.909047
56.031957
96.593133
145.6971
173.77357
159.50228
113.2624
68.53086
27.084967
-2.1296194
-16.173141
-24.164903
-23.032711
-20.635111
-16.405904
-12.737579
-9.0917418
-6.4573165
-4.1858441
-2.7585443
-1.6317831
-0.92484924
-0.47040937
420.49137
494.75408
589.47634
706.68303
843.79913
995.55044
1154.908
1304.915
1399.6274
1387.0227
1243.0497
1112.5441
957.27872
749.19091
537.18535
346.25161
190.16241
74.293083
-2.075065
-44.199774
-60.107749
-58.325347
-45.880723
-31.40053
-20.813165
-13.456516
-8.7559518
-5.4486214
-3.4857693
-2.0541875
-1.2308204
-0.955882
-694.41423
-504.31845
-348.21499
-223.84349
-132.90642
-69.766073
-26.838981
1.8878281
14.690153
27.407804
46.88743
73.276512
115.4132
143.81257
130.5973
83.829285
42.356473
3.9956274
-20.251513
-28.245764
-31.802403
-27.346839
-23.064818
-17.857225
-13.680597
-9.6747044
-6.8762175
-4.4881636
-3.0095308
-1.7947905
-1.0322528
-0.52598065
494.67984
589.00518
705.69888
843.00112
995.64944
1155.0624
1304.7648
1400.4602
1390.9572
1234.8768
1031.2389
949.29503
796.65335
598.74007
400.48885
226.65528
89.706958
-6.2033226
-63.085666
-87.341174
-88.322193
-74.245621
-53.244612
-34.95797
-22.801308
-14.549024
-9.3774845
-5.7712142
-3.6658943
-2.1411781
-1.2680353
-0.97149729
-919.33764
-694.40146
-504.16873
-347.91045
-223.45709
-132.64572
-69.659398
-26.495133
2.881087
17.246457
34.496784
59.993458
86.89477
107.671
92.982942
47.955587
14.932891
-17.380601
-35.91148
-38.392323
-38.145673
-30.810339
-24.952498
-18.942312
-14.301266
-10.009332
-7.0643656
-4.5862728
-3.07263
-1.8356101
-1.0676109
-0.55220852
588.92892
705.27056
842.16187
995.06784
1155.1489
1304.7044
1400.6996
1391.6505
1227.6621
897.96873
802.31872
750.86656
606.21899
424.35687
245.99144
94.556665
-18.704226
-90.736124
-124.85165
-129.25773
-114.35192
-87.326124
-59.055848
-37.956668
-24.537465
-15.508078
-9.9256352
-6.0527325
-3.8224491
-2.2157186
-1.2985325
-0.98121676
-1185.625
-919.3294
-694.1856
-503.71259
-347.37531
-223.13279
-132.55447
-69.388473
-25.619033
5.0596944
22.599422
47.193772
67.311609
72.667863
55.046127
11.76565
-11.273125
-37.929375
-51.424336
-48.745372
-44.804388
-34.415112
-26.955677
-20.072776
-14.938339
-10.34926
-7.2487428
-4.6761551
-3.1197817
-1.8578931
-1.0804768
-0.56202495
705.18823
841.79423
994.45522
1154.8636
1304.6488
1400.7672
1391.7329
1221.8571
821.79631
465.71202
552.63865
517.05994
388.55684
228.55922
75.756862
-48.112251
-132.68476
-176.6116
-185.2833
-168.56005
-137.03698
-97.401747
-63.654588
-40.482224
-26.035556
-16.336659
-10.400966
-6.2939766
-3.9559373
-2.2783278
-1.3229115
-0.98568672
-1499.4896
-1185.6143
-919.03333
-693.56166
-503.01701
-347.01446
-223.05419
-132.30862
-68.66313
-23.593223
8.8469206
31.204171
52.541817
43.611449
17.172006
-23.420719
-37.716703
-59.870174
-68.485708
-60.042347
-51.893581
-38.117732
-29.024133
-21.218682
-15.58136
-10.69464
-7.4378165
-4.7703228
-3.1692716
-1.8807789
-1.0908499
-0.57007824
841.70527
994.1787
1154.5572
1304.5779
1400.7836
1391.7351
1218.3827
779.81761
146.30945
80.085052
265.55673
248.33702
144.16719
12.888451
-107.92291
-197.94498
-248.76833
-261.18412
-242.5262
-204.01162
-155.34295
-104.85105
-67.295708
-42.593632
-27.309009
-17.039712
-10.805385
-6.496468
-4.0672762
-2.3297033
-1.3418026
-0.98560253
-1864.5762
-1499.482
-1185.2228
-918.21547
-692.71272
-502.65456
-346.94806
-222.81056
-131.63321
-66.973742
-19.790595
13.588873
35.328218
25.052577
-18.554679
-55.373912
-64.957022
-83.875549
-87.346427
-72.020815
-59.215357
-41.849064
-31.140302
-22.383018
-16.236644
-11.046389
-7.6296737
-4.8656772
-3.2194485
-1.9044549
-1.1015756
-0.57930219
994.08292
1154.4064
1304.5263
1400.7853
1391.7293
1216.564
756.39005
-29.159456
-614.17258
-271.47071
-59.876383
-51.368312
-123.80599
-218.70701
-300.49509
-350.90251
-363.78851
-342.07449
-294.95989
-234.50965
-168.93327
-110.29032
-70.176952
-44.330937
-28.371359
-17.62358
-11.141771
-6.6622557
-4.1577054
-2.3706724
-1.3558368
-0.98166857
-2292.2179
-1864.5744
-1498.9883
-1184.1799
-917.20101
-692.36096
-502.59169
-346.70239
-222.12108
-130.06419
-63.490078
-14.956794
13.142564
13.896074
-46.650082
-83.183198
-93.22357
-110.20182
-107.96893
-84.434283
-66.578628
-45.595655
-33.295248
-23.565949
-16.904137
-11.404367
-7.8245324
-4.9625008
-3.2703169
-1.9285046
-1.1125359
-0.58924297
1154.2993
1304.4868
1400.7841
1391.7398
1215.7344
744.13626
-128.57447
-1173.4486
-1188.5245
-639.7001
-418.70354
-377.04095
-410.14769
-461.28998
-497.55086
-503.30298
-474.81376
-417.14094
-341.29024
-259.0611
-178.44361
-114.12799
-72.452148
-45.72568
-29.236231
-18.095469
-11.413685
-6.7937556
-4.2287013
-2.4021459
-1.3656221
-0.97456401
-2795.6799
-2292.2103
-1863.9354
-1497.7125
-1182.9949
-916.865
-692.28334
-502.32249
-345.97629
-220.52095
-126.72052
-57.767526
-15.124075
-2.1751977
-58.781662
-108.32352
-122.44675
-138.82185
-130.03505
-97.169628
-73.777404
-49.367661
-35.48729
-24.770008
-17.584245
-11.768276
-8.0220554
-5.0604868
-3.3216611
-1.9527948
-1.1236474
-0.59955157
1304.3905
1400.7766
1391.7705
1215.3219
738.1965
-182.20367
-1494.264
-2303.1251
-1622.6033
-1043.8573
-805.48439
-724.22411
-710.0796
-710.26865
-694.90226
-651.58376
-579.1455
-484.62563
-380.61947
-276.96244
-184.88783
-116.6431
-74.20987
-46.80763
-29.917123
-18.463025
-11.625153
-6.8936223
-4.2818984
-2.4250745
-1.3717285
-0.96491759
-3396.0926
-2795.6657
-2291.3639
-1862.37
-1496.3709
-1182.6772
-916.76341
-691.96378
-501.49342
-344.24792
-217.11127
-120.86559
-53.353171
-28.907013
-57.287465
-132.99954
-152.59585
-169.54899
-152.95698
-110.16386
-80.674805
-53.175259
-37.7129
-25.995791
-18.276391
-12.137775
-8.222137
-5.1596333
-3.3734786
-1.9772952
-1.1348736
-0.61012782
1400.7382
1391.8305
1215.2035
735.83744
-210.5151
-1673.6199
-3143.2163
-3037.4409
-2046.3816
-1486.0016
-1216.6525
-1088.5522
-1018.9442
-960.95693
-888.31554
-792.41184
-674.56324
-543.29221
-412.37896
-288.39264
-189.01887
-118.19371
-75.495014
-47.605219
-30.4273
-18.734068
-11.780521
-6.964644
-4.3190158
-2.4404116
-1.3746776
-0.95329141
-4125.0141
-3396.1136
-2794.5265
-2289.4218
-1860.8676
-1496.047
-1182.5087
-916.34109
-690.98611
-499.46217
-340.53354
-211.17247
-115.62659
-61.970942
-64.064206
-157.06021
-184.0722
-202.20262
-176.10301
-123.14246
-87.279316
-57.021346