/*--------------------------------*- C++ -*----------------------------------*\
| =========                 |                                                 |
| \\      /  F ield         | OpenFOAM: The Open Source CFD Toolbox           |
|  \\    /   O peration     | Version:  2212                                  |
|   \\  /    A nd           | Website:  www.openfoam.com                      |
|    \\/     M anipulation  |                                                 |
\*---------------------------------------------------------------------------*/
FoamFile
{
    version     2.0;
    format      ascii;
    arch        "LSB;label=32;scalar=64";
    class       volScalarField;
    location    "10000";
    object      alphat;
}
// * * * * * * * * * * * * * * * * * * * * * * * * * * * * * * * * * * * * * //

dimensions      [1 -1 -1 0 0 0 0];

internalField   nonuniform List<scalar> 
18080
(
5.04295e-08
5.87017e-08
7.62112e-08
6.81633e-08
5.57454e-08
4.67265e-08
3.99217e-08
3.46704e-08
3.0552e-08
2.72828e-08
2.46696e-08
2.25628e-08
2.08528e-08
1.9457e-08
1.83125e-08
1.73697e-08
1.65895e-08
1.59398e-08
1.53936e-08
1.49281e-08
1.45232e-08
1.41623e-08
1.38326e-08
1.35257e-08
1.3239e-08
1.29753e-08
1.2743e-08
1.25537e-08
1.24207e-08
1.23606e-08
1.23872e-08
1.25142e-08
1.27582e-08
1.31373e-08
1.36746e-08
1.44038e-08
1.53682e-08
1.66288e-08
1.8266e-08
2.03846e-08
2.31165e-08
2.66206e-08
3.10753e-08
3.66583e-08
4.35109e-08
5.16558e-08
6.10173e-08
7.1285e-08
5.07461e-08
5.87139e-08
7.46183e-08
7.01243e-08
5.77763e-08
4.87593e-08
4.19302e-08
3.66314e-08
3.24387e-08
2.90648e-08
2.6315e-08
2.40454e-08
2.21476e-08
2.05415e-08
1.91678e-08
1.79815e-08
1.69493e-08
1.60454e-08
1.52507e-08
1.45506e-08
1.3934e-08
1.33929e-08
1.29214e-08
1.25154e-08
1.21727e-08
1.18923e-08
1.16749e-08
1.15223e-08
1.14379e-08
1.14287e-08
1.15021e-08
1.16686e-08
1.19439e-08
1.23476e-08
1.29057e-08
1.36546e-08
1.46399e-08
1.5924e-08
1.75868e-08
1.97298e-08
2.24775e-08
2.5973e-08
3.03626e-08
3.57624e-08
4.22035e-08
4.9542e-08
5.74848e-08
6.54325e-08
5.06393e-08
5.82308e-08
7.37045e-08
7.09115e-08
5.83627e-08
4.91909e-08
4.22359e-08
3.68341e-08
3.25587e-08
2.91202e-08
2.63223e-08
2.40196e-08
2.21017e-08
2.04871e-08
1.91149e-08
1.79389e-08
1.69243e-08
1.6044e-08
1.52777e-08
1.46094e-08
1.40269e-08
1.35209e-08
1.30841e-08
1.27116e-08
1.23997e-08
1.21467e-08
1.19525e-08
1.18182e-08
1.17467e-08
1.1745e-08
1.18204e-08
1.19837e-08
1.22509e-08
1.26425e-08
1.31848e-08
1.39151e-08
1.48798e-08
1.61421e-08
1.7783e-08
1.99056e-08
2.26375e-08
2.61274e-08
3.05332e-08
3.59933e-08
4.25773e-08
5.01977e-08
5.86278e-08
6.72328e-08
5.07534e-08
5.83357e-08
7.37526e-08
7.09962e-08
5.84639e-08
4.92479e-08
4.23028e-08
3.69105e-08
3.26269e-08
2.91816e-08
2.63775e-08
2.40689e-08
2.21452e-08
2.05244e-08
1.91452e-08
1.79613e-08
1.69376e-08
1.60472e-08
1.52696e-08
1.4589e-08
1.39934e-08
1.34735e-08
1.30224e-08
1.26353e-08
1.23089e-08
1.20415e-08
1.18334e-08
1.16857e-08
1.16015e-08
1.15875e-08
1.16512e-08
1.18033e-08
1.20597e-08
1.24404e-08
1.29717e-08
1.36906e-08
1.46434e-08
1.58936e-08
1.75227e-08
1.96359e-08
2.23653e-08
2.58692e-08
3.03241e-08
3.59014e-08
4.27249e-08
5.07849e-08
5.99557e-08
6.96165e-08
5.08355e-08
5.83003e-08
7.35882e-08
7.11724e-08
5.86123e-08
4.93637e-08
4.23883e-08
3.69774e-08
3.26934e-08
2.92346e-08
2.64188e-08
2.41001e-08
2.21678e-08
2.05397e-08
1.91546e-08
1.7966e-08
1.69388e-08
1.60459e-08
1.52669e-08
1.45859e-08
1.39907e-08
1.34721e-08
1.30232e-08
1.26388e-08
1.23157e-08
1.2052e-08
1.1848e-08
1.17046e-08
1.16248e-08
1.16153e-08
1.16836e-08
1.18403e-08
1.21015e-08
1.24874e-08
1.30247e-08
1.37509e-08
1.47131e-08
1.59761e-08
1.76235e-08
1.97639e-08
2.25347e-08
2.61032e-08
3.06607e-08
3.64026e-08
4.34905e-08
5.19684e-08
6.17881e-08
7.23287e-08
5.10351e-08
5.84261e-08
7.36567e-08
7.12005e-08
5.86633e-08
4.94221e-08
4.24452e-08
3.70188e-08
3.27386e-08
2.92734e-08
2.64515e-08
2.41274e-08
2.21902e-08
2.05579e-08
1.91689e-08
1.79768e-08
1.69463e-08
1.60505e-08
1.52686e-08
1.45849e-08
1.39871e-08
1.34658e-08
1.30142e-08
1.26271e-08
1.23012e-08
1.20346e-08
1.18275e-08
1.16807e-08
1.15975e-08
1.15842e-08
1.16484e-08
1.18006e-08
1.20569e-08
1.24375e-08
1.2969e-08
1.36888e-08
1.46441e-08
1.58999e-08
1.75403e-08
1.96753e-08
2.24449e-08
2.60223e-08
3.06095e-08
3.64219e-08
4.3654e-08
5.24001e-08
6.26949e-08
7.39537e-08
5.13539e-08
5.86337e-08
7.3798e-08
7.12019e-08
5.87078e-08
4.94824e-08
4.25067e-08
3.70745e-08
3.2771e-08
2.93169e-08
2.64891e-08
2.41594e-08
2.22172e-08
2.05801e-08
1.91868e-08
1.79909e-08
1.6957e-08
1.60581e-08
1.52736e-08
1.45877e-08
1.39879e-08
1.3465e-08
1.3012e-08
1.26238e-08
1.22969e-08
1.20296e-08
1.18218e-08
1.16745e-08
1.15908e-08
1.15772e-08
1.16411e-08
1.17932e-08
1.20495e-08
1.24303e-08
1.29624e-08
1.36835e-08
1.46413e-08
1.59015e-08
1.75498e-08
1.96985e-08
2.24922e-08
2.61112e-08
3.07703e-08
3.67054e-08
4.41425e-08
5.32218e-08
6.40515e-08
7.60571e-08
5.18584e-08
5.89953e-08
7.41165e-08
7.11185e-08
5.87125e-08
4.95235e-08
4.25597e-08
3.71298e-08
3.28203e-08
2.93548e-08
2.65325e-08
2.41983e-08
2.22515e-08
2.06101e-08
1.92128e-08
1.80131e-08
1.69757e-08
1.60738e-08
1.52865e-08
1.45979e-08
1.39959e-08
1.34709e-08
1.30159e-08
1.26258e-08
1.22971e-08
1.2028e-08
1.18184e-08
1.16692e-08
1.15837e-08
1.15681e-08
1.16298e-08
1.17797e-08
1.20336e-08
1.24118e-08
1.29411e-08
1.36594e-08
1.46144e-08
1.58724e-08
1.75198e-08
1.96707e-08
2.24728e-08
2.61126e-08
3.08157e-08
3.68364e-08
4.44291e-08
5.37753e-08
6.50539e-08
7.7708e-08
5.26499e-08
5.95728e-08
7.46648e-08
7.09394e-08
5.86775e-08
4.95504e-08
4.26109e-08
3.71899e-08
3.28821e-08
2.94093e-08
2.65878e-08
2.42495e-08
2.22984e-08
2.06525e-08
1.92509e-08
1.80471e-08
1.70059e-08
1.61003e-08
1.53098e-08
1.46182e-08
1.40134e-08
1.34859e-08
1.30286e-08
1.26363e-08
1.23055e-08
1.20344e-08
1.18228e-08
1.16718e-08
1.15843e-08
1.15669e-08
1.16268e-08
1.17748e-08
1.20268e-08
1.24031e-08
1.29306e-08
1.36472e-08
1.4601e-08
1.5859e-08
1.75089e-08
1.9667e-08
2.24855e-08
2.61586e-08
3.09252e-08
3.70613e-08
4.48535e-08
5.45277e-08
6.63342e-08
7.97188e-08
5.3881e-08
6.04685e-08
7.55451e-08
7.06265e-08
5.85849e-08
4.95563e-08
4.26589e-08
3.7256e-08
3.29551e-08
2.94817e-08
2.66507e-08
2.43175e-08
2.23623e-08
2.07121e-08
1.93059e-08
1.80976e-08
1.7052e-08
1.61422e-08
1.53477e-08
1.46525e-08
1.40442e-08
1.35135e-08
1.30532e-08
1.2658e-08
1.23245e-08
1.20507e-08
1.18365e-08
1.16829e-08
1.1593e-08
1.1573e-08
1.16303e-08
1.17756e-08
1.20249e-08
1.23982e-08
1.29227e-08
1.36362e-08
1.45872e-08
1.58432e-08
1.74931e-08
1.9656e-08
2.24885e-08
2.61935e-08
3.10244e-08
3.72811e-08
4.52845e-08
5.53061e-08
6.76678e-08
8.18138e-08
5.57574e-08
6.1812e-08
7.68769e-08
7.01431e-08
5.84195e-08
4.95373e-08
4.27051e-08
3.73325e-08
3.30452e-08
2.95768e-08
2.67418e-08
2.44094e-08
2.24505e-08
2.07957e-08
1.93844e-08
1.81707e-08
1.71198e-08
1.62049e-08
1.54054e-08
1.47054e-08
1.40927e-08
1.35577e-08
1.30934e-08
1.26944e-08
1.23572e-08
1.20799e-08
1.18623e-08
1.17054e-08
1.16122e-08
1.15891e-08
1.16431e-08
1.1785e-08
1.20308e-08
1.24006e-08
1.29212e-08
1.36309e-08
1.45783e-08
1.58317e-08
1.74817e-08
1.96503e-08
2.25001e-08
2.62443e-08
3.11544e-08
3.75596e-08
4.58226e-08
5.6269e-08
6.92997e-08
8.43506e-08
5.85507e-08
6.37668e-08
7.87996e-08
6.94535e-08
5.81642e-08
4.94878e-08
4.27498e-08
3.74232e-08
3.3158e-08
2.96994e-08
2.68656e-08
2.45256e-08
2.257e-08
2.09102e-08
1.9493e-08
1.8273e-08
1.72155e-08
1.6294e-08
1.54881e-08
1.4782e-08
1.41634e-08
1.36228e-08
1.31532e-08
1.27491e-08
1.2407e-08
1.2125e-08
1.19029e-08
1.17415e-08
1.16442e-08
1.16168e-08
1.16665e-08
1.18041e-08
1.20454e-08
1.24102e-08
1.29257e-08
1.363e-08
1.45722e-08
1.58214e-08
1.74699e-08
1.96433e-08
2.25111e-08
2.62988e-08
3.13e-08
3.78797e-08
4.64514e-08
5.74065e-08
7.12355e-08
8.73679e-08
6.25679e-08
6.65126e-08
8.1444e-08
6.85342e-08
5.78033e-08
4.94001e-08
4.27911e-08
3.75296e-08
3.32976e-08
2.98553e-08
2.70277e-08
2.46845e-08
2.27283e-08
2.10631e-08
1.9639e-08
1.84112e-08
1.73455e-08
1.64156e-08
1.56015e-08
1.48873e-08
1.4261e-08
1.3713e-08
1.32363e-08
1.28255e-08
1.2477e-08
1.21888e-08
1.19608e-08
1.17937e-08
1.16907e-08
1.16579e-08
1.1702e-08
1.18338e-08
1.20692e-08
1.24277e-08
1.29365e-08
1.36336e-08
1.45686e-08
1.58116e-08
1.74568e-08
1.96339e-08
2.25204e-08
2.6357e-08
3.1464e-08
3.8251e-08
4.71971e-08
5.87786e-08
7.3597e-08
9.10867e-08
6.80252e-08
7.01848e-08
7.97433e-08
6.73695e-08
5.73137e-08
4.92558e-08
4.28167e-08
3.7645e-08
3.34615e-08
3.00447e-08
2.72289e-08
2.48878e-08
2.29238e-08
2.12589e-08
1.98272e-08
1.85901e-08
1.75144e-08
1.65742e-08
1.57496e-08
1.50252e-08
1.4389e-08
1.38315e-08
1.33457e-08
1.29262e-08
1.25694e-08
1.22734e-08
1.20378e-08
1.18634e-08
1.17535e-08
1.17137e-08
1.17506e-08
1.1875e-08
1.21026e-08
1.24528e-08
1.29526e-08
1.36401e-08
1.45652e-08
1.57989e-08
1.74376e-08
1.96153e-08
2.25188e-08
2.6406e-08
3.16295e-08
3.86547e-08
4.80444e-08
6.03875e-08
7.64285e-08
9.56352e-08
7.48484e-08
7.47832e-08
7.69596e-08
6.60268e-08
5.67269e-08
4.9061e-08
4.28284e-08
3.77713e-08
3.36528e-08
3.02723e-08
2.74747e-08
2.51405e-08
2.31726e-08
2.15042e-08
2.00635e-08
1.88155e-08
1.77274e-08
1.67743e-08
1.59367e-08
1.51995e-08
1.45507e-08
1.39814e-08
1.34841e-08
1.30537e-08
1.26864e-08
1.23802e-08
1.21349e-08
1.19512e-08
1.18323e-08
1.17839e-08
1.1812e-08
1.19275e-08
1.21457e-08
1.24856e-08
1.2974e-08
1.36491e-08
1.4561e-08
1.57815e-08
1.74091e-08
1.95825e-08
2.24981e-08
2.64337e-08
3.17795e-08
3.90688e-08
4.89723e-08
6.22298e-08
7.97774e-08
1.01169e-07
7.83496e-08
8.0059e-08
7.41477e-08
6.45688e-08
5.60358e-08
4.8792e-08
4.27978e-08
3.78825e-08
3.38501e-08
3.05209e-08
2.77514e-08
2.54303e-08
2.34643e-08
2.17862e-08
2.03417e-08
1.90816e-08
1.79797e-08
1.70117e-08
1.61588e-08
1.54064e-08
1.47429e-08
1.41591e-08
1.36481e-08
1.32047e-08
1.28252e-08
1.25075e-08
1.2251e-08
1.20563e-08
1.19264e-08
1.18666e-08
1.18829e-08
1.19867e-08
1.21931e-08
1.25202e-08
1.29948e-08
1.36544e-08
1.45493e-08
1.5752e-08
1.73624e-08
1.95239e-08
2.24427e-08
2.64176e-08
3.18812e-08
3.94473e-08
4.99219e-08
6.4244e-08
8.36063e-08
1.07727e-07
7.24759e-08
7.93542e-08
7.14487e-08
6.30355e-08
5.52176e-08
4.84027e-08
4.26755e-08
3.79346e-08
3.40168e-08
3.0761e-08
2.80354e-08
2.57381e-08
2.37818e-08
2.21014e-08
2.06513e-08
1.93798e-08
1.82636e-08
1.72796e-08
1.64099e-08
1.56405e-08
1.49604e-08
1.43612e-08
1.38353e-08
1.33768e-08
1.29824e-08
1.26504e-08
1.23804e-08
1.21732e-08
1.20325e-08
1.1962e-08
1.19663e-08
1.20567e-08
1.22484e-08
1.25593e-08
1.30167e-08
1.36573e-08
1.45313e-08
1.57112e-08
1.72981e-08
1.94387e-08
2.23482e-08
2.63468e-08
3.19121e-08
3.97486e-08
5.08257e-08
6.63365e-08
8.78054e-08
1.15224e-07
6.81185e-08
7.5894e-08
6.91341e-08
6.15948e-08
5.43568e-08
4.79314e-08
4.24798e-08
3.7939e-08
3.41621e-08
3.10006e-08
2.83341e-08
2.60709e-08
2.41308e-08
2.24526e-08
2.09946e-08
1.97149e-08
1.85836e-08
1.75821e-08
1.66941e-08
1.59068e-08
1.52078e-08
1.45891e-08
1.40449e-08
1.35703e-08
1.31608e-08
1.28141e-08
1.25298e-08
1.23083e-08
1.21525e-08
1.20671e-08
1.20579e-08
1.21365e-08
1.23155e-08
1.26104e-08
1.30484e-08
1.36666e-08
1.45155e-08
1.56674e-08
1.72234e-08
1.93323e-08
2.22161e-08
2.62139e-08
3.18467e-08
3.99142e-08
5.15699e-08
6.83075e-08
9.20433e-08
1.23141e-07
6.5225e-08
7.34577e-08
6.73623e-08
6.0343e-08
5.34902e-08
4.73843e-08
4.22072e-08
3.78905e-08
3.42806e-08
3.12348e-08
2.86427e-08
2.64242e-08
2.45071e-08
2.2836e-08
2.13733e-08
2.00839e-08
1.8937e-08
1.79179e-08
1.70095e-08
1.62001e-08
1.54819e-08
1.4845e-08
1.42826e-08
1.37901e-08
1.33638e-08
1.30012e-08
1.27019e-08
1.24662e-08
1.22959e-08
1.21951e-08
1.21691e-08
1.22289e-08
1.23901e-08
1.26677e-08
1.30874e-08
1.36817e-08
1.45012e-08
1.56186e-08
1.71344e-08
1.91968e-08
2.20313e-08
2.59894e-08
3.16271e-08
3.98308e-08
5.19395e-08
6.97601e-08
9.55851e-08
1.3017e-07
6.37292e-08
7.20894e-08
6.61858e-08
5.92956e-08
5.2603e-08
4.67404e-08
4.18417e-08
3.77768e-08
3.43614e-08
3.14524e-08
2.89503e-08
2.67871e-08
2.49e-08
2.32408e-08
2.1777e-08
2.04786e-08
1.93163e-08
1.82767e-08
1.73487e-08
1.65189e-08
1.57787e-08
1.51212e-08
1.4539e-08
1.40262e-08
1.35798e-08
1.3198e-08
1.28806e-08
1.26285e-08
1.24444e-08
1.233e-08
1.22885e-08
1.23316e-08
1.24736e-08
1.27282e-08
1.31227e-08
1.36908e-08
1.44801e-08
1.55589e-08
1.7026e-08
1.90273e-08
2.17876e-08
2.56631e-08
3.12319e-08
3.945e-08
5.18288e-08
7.04702e-08
9.79422e-08
1.35207e-07
6.35542e-08
7.17732e-08
6.55834e-08
5.84038e-08
5.16455e-08
4.59718e-08
4.13734e-08
3.75945e-08
3.44001e-08
3.16471e-08
2.92486e-08
2.71501e-08
2.52992e-08
2.36573e-08
2.21965e-08
2.08876e-08
1.97109e-08
1.86538e-08
1.77038e-08
1.68522e-08
1.60888e-08
1.5407e-08
1.48015e-08
1.42676e-08
1.38017e-08
1.34014e-08
1.30663e-08
1.27974e-08
1.25974e-08
1.24663e-08
1.24081e-08
1.24369e-08
1.25633e-08
1.27979e-08
1.31671e-08
1.37026e-08
1.44548e-08
1.54954e-08
1.69119e-08
1.88437e-08
2.15109e-08
2.52671e-08
3.06974e-08
3.88075e-08
5.12691e-08
7.04602e-08
9.90731e-08
1.37936e-07
6.46216e-08
7.24476e-08
6.54657e-08
5.75583e-08
5.05451e-08
4.50563e-08
4.08065e-08
3.73514e-08
3.44004e-08
3.1818e-08
2.95331e-08
2.75068e-08
2.56974e-08
2.40758e-08
2.26215e-08
2.13044e-08
2.01131e-08
1.9037e-08
1.80645e-08
1.71877e-08
1.64005e-08
1.5697e-08
1.50711e-08
1.45175e-08
1.40323e-08
1.36132e-08
1.32597e-08
1.29739e-08
1.2759e-08
1.26116e-08
1.25333e-08
1.25436e-08
1.26527e-08
1.2867e-08
1.32139e-08
1.37195e-08
1.44343e-08
1.5426e-08
1.67877e-08
1.86485e-08
2.12116e-08
2.48196e-08
3.00502e-08
3.79406e-08
5.03221e-08
6.98576e-08
9.9203e-08
1.38634e-07
6.68627e-08
7.40403e-08
6.57046e-08
5.66224e-08
4.92419e-08
4.39982e-08
4.01653e-08
3.70667e-08
3.4373e-08
3.1969e-08
2.9805e-08
2.78521e-08
2.60884e-08
2.44944e-08
2.30424e-08
2.17181e-08
2.05125e-08
1.94152e-08
1.84204e-08
1.75221e-08
1.67136e-08
1.59889e-08
1.5342e-08
1.47681e-08
1.42613e-08
1.38213e-08
1.34511e-08
1.31486e-08
1.292e-08
1.27565e-08
1.26622e-08
1.26567e-08
1.27479e-08
1.29377e-08
1.32606e-08
1.37354e-08
1.44139e-08
1.53664e-08
1.66749e-08
1.84589e-08
2.09206e-08
2.43691e-08
2.93621e-08
3.6958e-08
4.91741e-08
6.9031e-08
9.8989e-08
1.38246e-07
7.01287e-08
7.64429e-08
6.61258e-08
5.54593e-08
4.7719e-08
4.28381e-08
3.94921e-08
3.67679e-08
3.43338e-08
3.21096e-08
3.00608e-08
2.81902e-08
2.64733e-08
2.49004e-08
2.34511e-08
2.21183e-08
2.08978e-08
1.97837e-08
1.87699e-08
1.78508e-08
1.7021e-08
1.62753e-08
1.56035e-08
1.50082e-08
1.44868e-08
1.40314e-08
1.36421e-08
1.33233e-08
1.30826e-08
1.2904e-08
1.27922e-08
1.2772e-08
1.28472e-08
1.30134e-08
1.33134e-08
1.37543e-08
1.43981e-08
1.53186e-08
1.65845e-08
1.83066e-08
2.06622e-08
2.3954e-08
2.86928e-08
3.59505e-08
4.79806e-08
6.82987e-08
9.89458e-08
1.3761e-07
7.42585e-08
7.95648e-08
6.65505e-08
5.39857e-08
4.60163e-08
4.16412e-08
3.88298e-08
3.64759e-08
3.42954e-08
3.22403e-08
3.03144e-08
2.85154e-08
2.68377e-08
2.52761e-08
2.38292e-08
2.24942e-08
2.12644e-08
2.01346e-08
1.91007e-08
1.8159e-08
1.73068e-08
1.65398e-08
1.58521e-08
1.52436e-08
1.47038e-08
1.42322e-08
1.38264e-08
1.34922e-08
1.32418e-08
1.30491e-08
1.29206e-08
1.28872e-08
1.2948e-08
1.30893e-08
1.33684e-08
1.37759e-08
1.43865e-08
1.52741e-08
1.65057e-08
1.81795e-08
2.04478e-08
2.35863e-08
2.80643e-08
3.49555e-08
4.68108e-08
6.78388e-08
9.92961e-08
1.3666e-07
7.90073e-08
8.07246e-08
6.67593e-08
5.2173e-08
4.42101e-08
4.0472e-08
3.8207e-08
3.62019e-08
3.42456e-08
3.23642e-08
3.05497e-08
2.88114e-08
2.71654e-08
2.56217e-08
2.41791e-08
2.28383e-08
2.15959e-08
2.04502e-08
1.93997e-08
1.84411e-08
1.75722e-08
1.67893e-08
1.60892e-08
1.54627e-08
1.49073e-08
1.4421e-08
1.39999e-08
1.36511e-08
1.33933e-08
1.31878e-08
1.30433e-08
1.29983e-08
1.30459e-08
1.31612e-08
1.34215e-08
1.37952e-08
1.43763e-08
1.52393e-08
1.64409e-08
1.80713e-08
2.02707e-08
2.32529e-08
2.74618e-08
3.39577e-08
4.56532e-08
6.76914e-08
1.00002e-07
1.3521e-07
7.64624e-08
7.61532e-08
6.65922e-08
5.00838e-08
4.23985e-08
3.9381e-08
3.76349e-08
3.59383e-08
3.42063e-08
3.24766e-08
3.07477e-08
2.90647e-08
2.74519e-08
2.59249e-08
2.44851e-08
2.314e-08
2.18885e-08
2.07308e-08
1.96659e-08
1.86916e-08
1.78113e-08
1.70155e-08
1.62989e-08
1.56584e-08
1.50896e-08
1.45908e-08
1.4156e-08
1.37938e-08
1.35311e-08
1.33141e-08
1.31547e-08
1.30999e-08
1.31357e-08
1.32239e-08
1.34679e-08
1.38078e-08
1.43638e-08
1.52085e-08
1.63891e-08
1.79842e-08
2.0112e-08
2.29659e-08
2.69205e-08
3.30758e-08
4.49644e-08
6.903e-08
1.0355e-07
1.38082e-07
7.19072e-08
7.20377e-08
6.60293e-08
4.79257e-08
4.07268e-08
3.84524e-08
3.7163e-08
3.57211e-08
3.41988e-08
3.25872e-08
3.09376e-08
2.93028e-08
2.77154e-08
2.62006e-08
2.4763e-08
2.34141e-08
2.21539e-08
2.09849e-08
1.99072e-08
1.89253e-08
1.80319e-08
1.7224e-08
1.6498e-08
1.58497e-08
1.52741e-08
1.477e-08
1.43288e-08
1.39597e-08
1.37e-08
1.34784e-08
1.33108e-08
1.3253e-08
1.3284e-08
1.33499e-08
1.35864e-08
1.39001e-08
1.44444e-08
1.52879e-08
1.64687e-08
1.80576e-08
2.01494e-08
2.29269e-08
2.67264e-08
3.36572e-08
5.16158e-08
8.64473e-08
1.33876e-07
1.81908e-07
6.8244e-08
6.84608e-08
6.51326e-08
4.58567e-08
3.92608e-08
3.77019e-08
3.67859e-08
3.55789e-08
3.42025e-08
3.26895e-08
3.11012e-08
2.95001e-08
2.79325e-08
2.64363e-08
2.50201e-08
2.3709e-08
2.25125e-08
2.1445e-08
2.05205e-08
1.97432e-08
1.91128e-08
1.86237e-08
1.82626e-08
1.80123e-08
1.78509e-08
1.77627e-08
1.77193e-08
1.77183e-08
1.78334e-08
1.79361e-08
1.80496e-08
1.82787e-08
1.85952e-08
1.88906e-08
1.94523e-08
2.00666e-08
2.10526e-08
2.2505e-08
2.44847e-08
2.71082e-08
3.05074e-08
3.49466e-08
4.13463e-08
7.65112e-08
2.16808e-07
4.25873e-07
6.66842e-07
8.95372e-07
6.53227e-08
6.55141e-08
6.40381e-08
4.40492e-08
3.81401e-08
3.727e-08
3.66502e-08
3.56543e-08
3.44185e-08
3.30215e-08
3.15794e-08
3.02561e-08
2.92843e-08
2.90081e-08
2.98778e-08
3.25016e-08
3.7507e-08
4.54601e-08
5.67011e-08
7.12181e-08
8.86594e-08
1.08288e-07
1.29099e-07
1.50046e-07
1.70082e-07
1.88471e-07
2.04424e-07
2.17647e-07
2.30151e-07
2.39687e-07
2.46778e-07
2.53818e-07
2.60669e-07
2.65191e-07
2.73761e-07
2.81377e-07
2.94326e-07
3.13432e-07
3.39267e-07
3.73152e-07
4.16565e-07
4.74489e-07
5.6674e-07
1.12461e-06
3.33609e-06
8.13884e-06
1.65907e-05
1.03491e-05
6.32493e-08
6.33739e-08
6.27687e-08
4.3006e-08
3.82465e-08
3.83723e-08
3.81779e-08
3.77014e-08
3.756e-08
3.91316e-08
4.57067e-08
6.39495e-08
1.0542e-07
1.87639e-07
3.32682e-07
5.63653e-07
8.96733e-07
1.33463e-06
1.86281e-06
2.451e-06
3.06184e-06
3.65594e-06
4.19978e-06
4.66982e-06
5.05155e-06
5.34464e-06
5.54616e-06
5.66676e-06
5.77541e-06
5.81426e-06
5.80529e-06
5.8116e-06
5.81506e-06
5.75673e-06
5.78962e-06
5.78084e-06
5.87368e-06
6.06602e-06
6.32855e-06
6.71703e-06
7.31572e-06
8.31618e-06
1.02826e-05
1.75562e-05
4.44542e-05
0.000110013
0.00010296
8.36297e-05
6.16784e-08
6.16111e-08
6.15842e-08
4.61333e-08
4.71268e-08
5.28197e-08
5.82721e-08
7.38248e-08
1.25697e-07
2.81513e-07
6.84404e-07
1.56877e-06
3.20869e-06
5.80966e-06
9.38826e-06
1.37696e-05
1.86197e-05
2.35577e-05
2.82333e-05
3.23722e-05
3.58201e-05
3.85102e-05
4.04649e-05
4.17625e-05
4.25035e-05
4.28293e-05
4.27947e-05
4.25379e-05
4.247e-05
4.21153e-05
4.16674e-05
4.15047e-05
4.14755e-05
4.13817e-05
4.23718e-05
4.34739e-05
4.59528e-05
4.93942e-05
5.25844e-05
5.3202e-05
5.17323e-05
5.0506e-05
5.22561e-05
6.72867e-05
0.000106601
0.000158384
0.000241387
0.000326921
6.03974e-08
6.01872e-08
6.05583e-08
7.40867e-08
1.22648e-07
1.93319e-07
3.36923e-07
8.32035e-07
2.30126e-06
5.66642e-06
1.15947e-05
2.00139e-05
3.02654e-05
4.15234e-05
5.29691e-05
6.39506e-05
7.39421e-05
8.26194e-05
8.9832e-05
9.555e-05
9.99055e-05
0.000103086
0.000105339
0.000106911
0.000108003
0.000108821
0.000109399
0.00011007
0.000111348
0.000111896
0.000111795
0.000111326
0.000109199
0.000104683
9.88358e-05
9.19236e-05
8.96702e-05
0.000102103
0.000147182
0.000241645
0.000216505
0.00018177
0.00018577
0.000228566
0.00031283
0.000413493
0.000513567
0.000565447
5.96224e-08
5.8721e-08
5.90836e-08
2.03882e-07
5.41659e-07
1.15376e-06
2.8204e-06
7.13183e-06
1.49744e-05
2.59119e-05
3.88195e-05
5.24869e-05
6.59319e-05
7.85488e-05
9.00303e-05
0.000100308
0.00010939
0.000117362
0.000124207
0.000130012
0.000135054
0.000139539
0.000143677
0.000147657
0.000151626
0.000155674
0.000159738
0.000164257
0.000169705
0.000175247
0.000180644
0.000184406
0.000182577
0.000171274
0.000153165
0.000136064
0.000126801
0.000140319
0.00017763
0.000227009
0.00029653
0.000379998
0.000457494
0.000524516
0.000590854
0.000645745
0.000689334
0.000734956
5.92081e-08
5.30341e-08
5.00663e-08
4.65595e-07
1.63568e-06
4.04415e-06
9.85881e-06
2.00559e-05
3.34801e-05
4.81884e-05
6.25308e-05
7.55561e-05
8.69013e-05
9.65511e-05
0.000104632
0.000111385
0.000117081
0.000122031
0.00012572
0.00012864
0.000131576
0.000134691
0.000138067
0.000141737
0.000145678
0.00014985
0.000154205
0.000158363
0.000162493
0.000167033
0.000171752
0.000177537
0.000185172
0.000193846
0.000200168
0.000199853
0.000194338
0.000194346
0.000212318
0.000241435
0.000268544
0.000291514
0.000310671
0.00033245
0.000360104
0.000392777
0.000433429
0.00048329
5.94621e-08
3.3438e-08
3.94573e-08
7.32709e-07
3.37628e-06
9.22262e-06
2.05711e-05
3.53699e-05
5.07669e-05
6.47761e-05
7.65697e-05
8.60347e-05
9.33753e-05
9.89518e-05
0.000103176
0.000106476
0.000109231
0.000111805
0.000114524
0.000117603
0.000120707
0.000124128
0.000127994
0.000132298
0.000137011
0.000142108
0.000147531
0.00015294
0.000158373
0.000164205
0.000171257
0.000180366
0.000193376
0.000207054
0.000218153
0.000227843
0.000235032
0.000226899
0.000226522
0.000245357
0.000266754
0.000286963
0.00030845
0.000334254
0.000364548
0.000395581
0.000426787
0.000455707
3.72519e-08
1.72586e-08
3.82744e-08
1.05347e-06
6.02963e-06
1.67575e-05
3.16426e-05
4.68572e-05
6.01852e-05
7.05997e-05
7.81996e-05
8.35332e-05
8.71444e-05
8.96024e-05
9.14261e-05
9.30225e-05
9.47157e-05
9.67859e-05
9.94355e-05
0.000102729
0.000106655
0.000111168
0.00011622
0.000121762
0.000127767
0.000134231
0.000141114
0.000148045
0.000154643
0.000160866
0.000167685
0.000177129
0.000192149
0.000213575
0.000232054
0.000247339
0.000261795
0.000278226
0.000306013
0.0003372
0.000367541
0.000398179
0.000433246
0.000473292
0.000514431
0.000551042
0.000578807
0.00059307
1.4692e-08
1.30966e-08
4.08975e-08
1.44991e-06
9.22997e-06
2.28433e-05
3.73506e-05
4.97786e-05
5.95635e-05
6.63537e-05
7.05519e-05
7.29512e-05
7.4273e-05
7.51205e-05
7.5915e-05
7.70081e-05
7.87076e-05
8.11321e-05
8.42684e-05
8.80764e-05
9.25139e-05
9.7517e-05
0.000103035
0.000109019
0.000115436
0.000122259
0.000129424
0.000136875
0.000144378
0.000151123
0.000155924
0.000162197
0.000173009
0.000191046
0.000217361
0.000247646
0.000280528
0.000329699
0.000384156
0.00043273
0.000472052
0.000503213
0.000528221
0.000549711
0.000575971
0.000606734
0.000631643
0.000651378
8.55636e-09
1.15442e-08
4.27705e-08
1.78014e-06
1.1203e-05
2.42337e-05
3.64826e-05
4.56723e-05
5.19125e-05
5.5682e-05
5.76576e-05
5.8611e-05
5.91571e-05
5.97291e-05
6.05341e-05
6.17745e-05
6.3662e-05
6.62604e-05
6.95664e-05
7.35553e-05
7.81298e-05
8.32288e-05
8.88038e-05
9.48226e-05
0.00010127
0.000108089
0.00011518
0.000122554
0.000130364
0.000138322
0.000144581
0.000148543
0.00015222
0.000158783
0.000185194
0.000228356
0.000279129
0.000335495
0.00038186
0.00041482
0.000439426
0.000460822
0.000482859
0.000508802
0.000542496
0.0005782
0.000603514
0.000620707
6.56813e-09
1.00578e-08
3.98358e-08
1.77412e-06
1.07134e-05
2.17368e-05
3.07591e-05
3.65609e-05
3.99397e-05
4.17759e-05
4.2725e-05
4.33381e-05
4.39875e-05
4.49046e-05
4.61223e-05
4.7728e-05
4.98438e-05
5.2523e-05
5.57956e-05
5.96477e-05
6.3973e-05
6.87629e-05
7.3974e-05
7.96129e-05
8.56982e-05
9.21427e-05
9.88371e-05
0.000105785
0.000113247
0.000121529
0.000130114
0.000135898
0.00013889
0.00013925
0.000151054
0.00019347
0.000254315
0.000315352
0.000361897
0.000392954
0.000415648
0.000436287
0.000456138
0.000472946
0.00048977
0.000506196
0.000516163
0.000525799
5.45873e-09
7.88463e-09
3.12097e-08
1.44061e-06
8.47668e-06
1.6411e-05
2.19879e-05
2.50944e-05
2.6766e-05
2.77428e-05
2.84448e-05
2.91611e-05
3.00708e-05
3.12826e-05
3.27622e-05
3.45647e-05
3.67683e-05
3.94175e-05
4.25435e-05
4.61232e-05
5.00527e-05
5.43804e-05
5.91022e-05
6.42447e-05
6.98461e-05
7.57803e-05
8.19342e-05
8.83396e-05
9.51713e-05
0.000102779
0.000111641
0.000120633
0.000126262
0.000125722
0.000125538
0.000146577
0.000196047
0.000252016
0.00029835
0.000330972
0.000352829
0.000367734
0.000375266
0.000375255
0.000373274
0.000376119
0.00038019
0.000385199
4.44335e-09
5.37243e-09
1.95526e-08
8.98771e-07
5.34383e-06
1.00413e-05
1.29554e-05
1.4491e-05
1.53781e-05
1.60353e-05
1.66664e-05
1.74032e-05
1.83295e-05
1.95018e-05
2.0909e-05
2.25868e-05
2.45844e-05
2.69396e-05
2.96831e-05
3.27954e-05
3.61949e-05
3.99513e-05
4.40926e-05
4.86394e-05
5.36246e-05
5.89333e-05
6.44434e-05
7.02394e-05
7.64031e-05
8.30785e-05
9.06786e-05
9.98757e-05
0.000108922
0.000111584
0.000107763
0.000109605
0.000130289
0.000164201
0.000200219
0.000226805
0.000243136
0.000251827
0.000252998
0.000244644
0.000240459
0.000246382
0.000258004
0.000271242
3.46391e-09
3.03783e-09
9.43905e-09
4.23063e-07
2.50661e-06
4.63947e-06
5.96003e-06
6.74437e-06
7.2476e-06
7.69707e-06
8.18099e-06
8.75827e-06
9.47157e-06
1.03556e-05
1.14156e-05
1.26696e-05
1.41623e-05
1.5928e-05
1.79973e-05
2.03756e-05
2.30364e-05
2.60261e-05
2.93774e-05
3.3106e-05
3.72374e-05
4.16927e-05
4.6368e-05
5.13604e-05
5.67141e-05
6.24264e-05
6.86101e-05
7.58829e-05
8.48203e-05
9.19823e-05
9.05733e-05
8.76834e-05
9.1534e-05
0.000102863
0.000118001
0.000131936
0.000142067
0.000149728
0.000155909
0.000160638
0.00016774
0.000179165
0.000192427
0.000205619
2.73562e-09
1.39602e-09
2.95873e-09
1.07517e-07
6.11509e-07
1.20058e-06
1.64513e-06
1.97935e-06
2.26676e-06
2.55608e-06
2.87456e-06
3.2461e-06
3.69229e-06
4.23397e-06
4.87683e-06
5.5944e-06
6.46755e-06
7.52553e-06
8.79699e-06
1.03003e-05
1.20397e-05
1.40493e-05
1.63431e-05
1.89491e-05
2.18954e-05
2.51604e-05
2.87068e-05
3.25886e-05
3.68374e-05
4.14144e-05
4.62986e-05
5.16689e-05
5.81924e-05
6.58253e-05
6.91396e-05
6.85043e-05
6.94369e-05
7.39044e-05
8.07386e-05
8.82478e-05
9.557e-05
0.000102534
0.000109555
0.000116529
0.000124911
0.000135383
0.000145014
0.000154134
2.14201e-09
5.33478e-10
5.2565e-10
1.28894e-08
7.15805e-08
1.48841e-07
2.17415e-07
2.78779e-07
3.40305e-07
4.0965e-07
4.92863e-07
5.96974e-07
7.30362e-07
9.03207e-07
1.12484e-06
1.40433e-06
1.76392e-06
2.22459e-06
2.80909e-06
3.53741e-06
4.42319e-06
5.48816e-06
6.68302e-06
8.08536e-06
9.73315e-06
1.16346e-05
1.37915e-05
1.62398e-05
1.90059e-05
2.20681e-05
2.53816e-05
2.89612e-05
3.3043e-05
3.80868e-05
4.28325e-05
4.53018e-05
4.72165e-05
5.03139e-05
5.42649e-05
5.88799e-05
6.40005e-05
6.91154e-05
7.42828e-05
7.90283e-05
8.41897e-05
9.01627e-05
9.46938e-05
9.91354e-05
1.65597e-09
3.29955e-10
1.63352e-10
9.09391e-10
4.69065e-09
9.8256e-09
1.45167e-08
1.8885e-08
2.3458e-08
2.8831e-08
3.55581e-08
4.43646e-08
5.62396e-08
7.25644e-08
9.50255e-08
1.25819e-07
1.69162e-07
2.30553e-07
3.17551e-07
4.39857e-07
6.09187e-07
8.41763e-07
1.15204e-06
1.56665e-06
2.11478e-06
2.82277e-06
3.71337e-06
4.81495e-06
6.14315e-06
7.68689e-06
9.3486e-06
1.11642e-05
1.31959e-05
1.56098e-05
1.835e-05
2.0811e-05
2.29301e-05
2.51586e-05
2.75173e-05
3.01097e-05
3.2929e-05
3.56021e-05
3.81111e-05
4.01272e-05
4.19162e-05
4.38153e-05
4.5082e-05
4.6682e-05
1.54829e-09
3.1217e-10
1.4135e-10
9.10363e-11
1.86255e-10
3.70907e-10
5.53116e-10
7.31807e-10
9.2417e-10
1.15033e-09
1.4295e-09
1.78681e-09
2.25694e-09
2.8879e-09
3.74003e-09
4.89488e-09
6.50335e-09
8.77461e-09
1.2015e-08
1.6661e-08
2.33226e-08
3.29446e-08
4.67187e-08
6.67432e-08
9.60078e-08
1.38501e-07
1.99525e-07
2.86799e-07
4.09331e-07
5.76634e-07
7.97106e-07
1.08336e-06
1.45155e-06
1.9382e-06
2.55472e-06
3.25598e-06
4.0351e-06
4.91476e-06
5.85762e-06
6.83421e-06
7.83226e-06
8.73232e-06
9.45509e-06
9.86712e-06
1.00629e-05
1.04133e-05
1.08156e-05
1.16499e-05
1.63132e-09
3.30577e-10
1.50001e-10
7.23383e-11
7.44149e-11
1.31764e-10
1.99058e-10
2.71223e-10
3.52004e-10
4.46239e-10
5.58686e-10
6.9519e-10
8.63822e-10
1.07459e-09
1.33987e-09
1.67625e-09
2.10738e-09
2.6647e-09
3.38923e-09
4.33471e-09
5.56955e-09
7.18726e-09
9.30432e-09
1.20886e-08
1.57605e-08
2.05911e-08
2.69208e-08
3.52609e-08
4.60446e-08
5.98364e-08
7.75122e-08
9.96709e-08
1.26762e-07
1.60522e-07
2.00194e-07
2.44591e-07
2.97564e-07
3.54091e-07
4.14798e-07
4.76864e-07
5.37265e-07
5.88258e-07
6.20612e-07
6.14743e-07
5.78618e-07
5.8092e-07
6.30185e-07
7.81009e-07
3.7371e-08
6.37162e-09
3.03362e-09
2.16415e-09
1.80803e-09
1.63907e-09
1.57691e-09
1.61405e-09
1.74334e-09
1.9792e-09
2.38905e-09
3.22147e-09
6.31935e-09
1.18004e-08
3.11897e-09
7.63194e-11
1.00292e-10
1.2622e-10
4.37217e-10
9.75233e-10
1.85546e-09
3.35823e-09
5.98184e-09
1.06447e-08
1.89195e-08
3.36112e-08
6.03848e-08
1.1619e-07
2.63706e-07
9.4428e-07
3.74355e-08
6.74652e-09
3.00135e-09
2.11255e-09
1.7627e-09
1.61253e-09
1.57907e-09
1.66199e-09
1.86548e-09
2.22375e-09
2.8642e-09
4.23563e-09
8.22859e-09
1.39219e-08
3.87196e-09
5.21897e-10
2.00669e-09
2.67579e-09
2.99392e-09
3.6482e-09
4.77995e-09
6.70778e-09
9.98049e-09
1.72265e-08
2.84564e-08
4.83517e-08
8.52665e-08
1.61167e-07
3.41904e-07
9.28323e-07
4.12173e-08
1.03204e-08
4.36895e-09
3.07018e-09
2.67322e-09
2.84274e-09
3.43118e-09
4.61743e-09
6.67022e-09
1.00948e-08
1.64419e-08
3.07856e-08
5.52294e-08
6.19331e-08
2.35769e-08
1.20535e-08
5.24137e-08
7.14299e-08
7.445e-08
8.13443e-08
9.33896e-08
1.12373e-07
1.40046e-07
1.90177e-07
2.49193e-07
3.27471e-07
4.39614e-07
6.16682e-07
9.71865e-07
1.49355e-06
4.59629e-08
1.75968e-08
9.85203e-09
8.53183e-09
9.33751e-09
1.22385e-08
1.7805e-08
2.75893e-08
4.37691e-08
6.99057e-08
1.16294e-07
2.12058e-07
3.31523e-07
3.17468e-07
1.58966e-07
1.23316e-07
5.48267e-07
7.57477e-07
7.9114e-07
8.43482e-07
9.19365e-07
1.01937e-06
1.13947e-06
1.31099e-06
1.48834e-06
1.69983e-06
1.99403e-06
2.46906e-06
3.57414e-06
5.00686e-06
5.01391e-08
2.69362e-08
1.99416e-08
2.11273e-08
2.70805e-08
3.91655e-08
6.06926e-08
9.69317e-08
1.54711e-07
2.43533e-07
3.89599e-07
6.4873e-07
9.10447e-07
8.6344e-07
5.16807e-07
6.15777e-07
3.17236e-06
4.16456e-06
4.13658e-06
4.07838e-06
4.05933e-06
4.10115e-06
4.20736e-06