/*--------------------------------*- C++ -*----------------------------------*\
| =========                 |                                                 |
| \\      /  F ield         | OpenFOAM: The Open Source CFD Toolbox           |
|  \\    /   O peration     | Version:  2212                                  |
|   \\  /    A nd           | Website:  www.openfoam.com                      |
|    \\/     M anipulation  |                                                 |
\*---------------------------------------------------------------------------*/
FoamFile
{
    version     2.0;
    format      ascii;
    arch        "LSB;label=32;scalar=64";
    class       volScalarField;
    location    "10000";
    object      C_mu_eff;
}
// * * * * * * * * * * * * * * * * * * * * * * * * * * * * * * * * * * * * * //

dimensions      [0 0 0 0 0 0 0];

internalField   nonuniform List<scalar> 
18080
(
0.0920429
0.107017
0.138395
0.122936
0.0996038
0.0824914
0.0694401
0.0592449
0.0511372
0.0445639
0.0390142
0.0342981
0.0302704
0.0268165
0.0238448
0.0212804
0.0190612
0.0171346
0.015456
0.0139872
0.0126953
0.0115533
0.0105392
0.00963688
0.00883497
0.0081266
0.00750835
0.00697807
0.00653414
0.00617632
0.00590258
0.00571091
0.00560085
0.00557315
0.00563086
0.00578189
0.00603803
0.00641829
0.00694912
0.00766607
0.00861498
0.00985172
0.0114394
0.0134414
0.0159081
0.0188475
0.022232
0.0259495
0.0926184
0.107039
0.135542
0.126547
0.103337
0.0862183
0.073108
0.0628081
0.0545462
0.047799
0.0420817
0.037118
0.0327805
0.0289736
0.0256238
0.022673
0.0200742
0.0177882
0.0157814
0.0140245
0.0124912
0.0111583
0.0100045
0.00901105
0.00816086
0.0074389
0.00683218
0.00632915
0.00592021
0.00559853
0.00535812
0.00519521
0.00510898
0.00510079
0.00517497
0.00534039
0.00560982
0.00600261
0.00654489
0.00727104
0.00822415
0.00945445
0.0110137
0.0129434
0.0152545
0.0178945
0.0207584
0.0236299
0.092425
0.106167
0.133915
0.128012
0.104436
0.0870351
0.0736971
0.0632132
0.0548057
0.0479479
0.0421543
0.0371403
0.0327754
0.02896
0.0256171
0.0226847
0.0201123
0.0178578
0.015885
0.0141623
0.0126619
0.0113591
0.0102319
0.00926079
0.00842857
0.00772013
0.00712267
0.00662494
0.00621769
0.00589464
0.00565047
0.00548192
0.00538878
0.00537312
0.00543973
0.00559831
0.00586213
0.00625132
0.00679284
0.00752218
0.00848407
0.00973145
0.0113209
0.013302
0.0156999
0.018482
0.0215652
0.0247167
0.0926322
0.106357
0.134001
0.128168
0.104624
0.0871477
0.0738293
0.0633623
0.0549409
0.0480715
0.0422715
0.0372508
0.0328784
0.0290545
0.0257016
0.022758
0.0201732
0.0179055
0.0159188
0.014182
0.0126678
0.0113516
0.0102118
0.00922912
0.00838635
0.00766853
0.00706283
0.006558
0.00614475
0.00581659
0.00556808
0.00539583
0.00529946
0.00528083
0.00534466
0.00550044
0.00576144
0.00614781
0.00668685
0.00741486
0.00837841
0.00963411
0.0112456
0.013275
0.0157675
0.0187191
0.0220842
0.0256345
0.0927811
0.106292
0.133706
0.128493
0.104898
0.0873642
0.0739938
0.0634947
0.0550717
0.0481788
0.0423616
0.0373261
0.032941
0.0291065
0.0257451
0.0227949
0.0202054
0.0179343
0.0159456
0.0142079
0.0126936
0.0113782
0.0102396
0.00925847
0.00841754
0.00770169
0.00709802
0.0065952
0.00618391
0.00585767
0.00561104
0.00544071
0.00534641
0.00533015
0.00539683
0.00555626
0.0058221
0.00621512
0.00676351
0.00750497
0.00848826
0.00977355
0.0114302
0.0135294
0.0161304
0.0192492
0.0228687
0.0267596
0.0931432
0.106516
0.133823
0.128537
0.104986
0.0874674
0.0740957
0.0635721
0.055156
0.0482527
0.0424283
0.0373859
0.0329947
0.0291547
0.0257883
0.0228336
0.0202399
0.017965
0.0159727
0.0142318
0.0127144
0.011396
0.0102546
0.00927084
0.00842736
0.00770908
0.00710307
0.00659799
0.00618455
0.00585621
0.00560753
0.0054352
0.00533892
0.00532067
0.00538538
0.00554283
0.00580673
0.00619796
0.00674496
0.00748599
0.00847095
0.00976222
0.0114333
0.013563
0.0162228
0.0194474
0.0232505
0.0274158
0.0937211
0.106887
0.134066
0.128526
0.105055
0.0875667
0.0741985
0.0636663
0.0552134
0.0483291
0.0424977
0.0374484
0.0330505
0.0292043
0.0258323
0.0228725
0.0202743
0.0179955
0.0159998
0.014256
0.0127361
0.0114155
0.0102724
0.00928705
0.00844227
0.00772289
0.00711595
0.0066101
0.00619602
0.00586719
0.00561812
0.00544556
0.00534922
0.00533113
0.00539628
0.00555459
0.00581997
0.00621367
0.00676467
0.00751225
0.00850797
0.00981705
0.0115178
0.0136966
0.0164368
0.0197903
0.0237979
0.028247
0.0946359
0.107534
0.13462
0.128349
0.105041
0.0876202
0.0742754
0.0637491
0.0552882
0.0483869
0.0425678
0.0375135
0.0331102
0.0292585
0.0258812
0.0229163
0.0203135
0.0180305
0.0160311
0.0142838
0.0127608
0.0114375
0.0102918
0.00930419
0.00845728
0.00773592
0.00712714
0.00661956
0.00620388
0.00587353
0.00562301
0.00544906
0.00535139
0.00533201
0.00539592
0.00555306
0.0058174
0.00621036
0.00676124
0.00750995
0.00850926
0.00982662
0.0115443
0.0137555
0.0165542
0.0200076
0.0241827
0.0288735
0.0960704
0.108566
0.135576
0.127981
0.104938
0.0876331
0.074335
0.0638267
0.0553707
0.0484602
0.0426465
0.0375884
0.03318
0.0293227
0.0259395
0.0229689
0.0203606
0.0180725
0.0160683
0.0143168
0.01279
0.0114632
0.0103143
0.00932382
0.0084743
0.00775056
0.00713963
0.00663007
0.0062126
0.0058806
0.00562855
0.00545316
0.00535417
0.00533352
0.00539625
0.00555233
0.00581582
0.00620837
0.00675971
0.00751058
0.0085153
0.00984412
0.0115841
0.0138364
0.0167066
0.0202784
0.0246454
0.0296025
0.098301
0.110166
0.137109
0.127346
0.104709
0.0875864
0.0743681
0.0638957
0.0554547
0.0485458
0.0427228
0.037676
0.0332634
0.0294003
0.0260108
0.0230335
0.0204186
0.0181241
0.0161141
0.0143571
0.0128253
0.0114939
0.0103409
0.00934661
0.00849365
0.00776677
0.00715297
0.00664078
0.00622089
0.00588665
0.00563245
0.00545501
0.00535402
0.00533135
0.00539204
0.00554603
0.00580744
0.00619809
0.00674809
0.007499
0.00850673
0.00984444
0.0116043
0.0138961
0.0168376
0.0205293
0.025091
0.0303172
0.101699
0.112563
0.139426
0.126368
0.104315
0.0874643
0.0743692
0.063956
0.055543
0.0486462
0.0428242
0.0377828
0.0333667
0.0294977
0.0261006
0.0231152
0.0204919
0.0181893
0.0161715
0.0144072
0.0128687
0.0115312
0.0103727
0.00937341
0.00851592
0.00778494
0.00716742
0.00665185
0.00622886
0.00589176
0.00563483
0.00545476
0.00535117
0.00532586
0.00538379
0.00553491
0.00579335
0.00618113
0.00672878
0.00747881
0.00848903
0.00983611
0.0116185
0.013956
0.0169814
0.0208148
0.0256044
0.0311426
0.106752
0.116042
0.142757
0.124968
0.103715
0.0872461
0.0743293
0.0640055
0.0556377
0.0487628
0.0429515
0.0379046
0.0334963
0.0296207
0.0262147
0.0232189
0.0205849
0.0182716
0.0162435
0.0144696
0.0129223
0.0115767
0.0104109
0.009405
0.00854158
0.00780527
0.00718294
0.00666302
0.00623609
0.00589533
0.0056349
0.00545144
0.00534446
0.00531563
0.00536984
0.00551695
0.00577112
0.00615452
0.00669811
0.00744547
0.0084565
0.00981197
0.0116177
0.0140057
0.0171266
0.0211239
0.0261779
0.0320794
0.114008
0.120914
0.147315
0.123092
0.102869
0.0869092
0.0742371
0.06404
0.0557392
0.048899
0.0431088
0.0380648
0.033659
0.0297761
0.0263591
0.0233504
0.0207025
0.0183752
0.0163336
0.0145471
0.012988
0.0116319
0.0104565
0.00944201
0.00857092
0.00782778
0.00719934
0.00667391
0.006242
0.00589663
0.0056318
0.00544405
0.00533279
0.00529948
0.0053489
0.0054908
0.00573929
0.00611668
0.00665438
0.00739707
0.00840709
0.00976999
0.0116004
0.0140455
0.0172783
0.0214722
0.0268464
0.0331949
0.123841
0.127398
0.143962
0.120733
0.101749
0.0864279
0.0740746
0.0640492
0.0558432
0.0490547
0.0432965
0.0382641
0.0338511
0.029969
0.0265389
0.023514
0.0208485
0.0185033
0.0164444
0.0146416
0.0130675
0.0116978
0.0105101
0.00948473
0.00860396
0.00785224
0.00721622
0.00668402
0.00624603
0.00589505
0.0056248
0.00543176
0.00531515
0.00527619
0.00531953
0.00545473
0.00569583
0.00606518
0.00659458
0.00732987
0.00833598
0.00970385
0.0115584
0.0140654
0.0174261
0.0218529
0.0276143
0.0345182
0.13609
0.135463
0.138591
0.117994
0.100398
0.0858027
0.073837
0.0640297
0.0559494
0.0492325
0.0435193
0.038507
0.0340934
0.0302059
0.02676
0.023715
0.0210274
0.0186596
0.0165788
0.0147554
0.0131623
0.0117755
0.0105725
0.00953357
0.00864078
0.00787843
0.00723299
0.00669244
0.00624705
0.00588934
0.00561274
0.00541353
0.00529068
0.00524504
0.00528105
0.00540803
0.00563989
0.00599893
0.00651726
0.00724175
0.00823998
0.00960876
0.0114849
0.014056
0.0175592
0.0222584
0.0284868
0.0360854
0.142257
0.144676
0.133157
0.115032
0.0988419
0.0850251
0.0735023
0.0639599
0.0560407
0.0494199
0.0437684
0.0387859
0.0343786
0.0304765
0.02702
0.0239515
0.0212375
0.0188426
0.0167353
0.0148869
0.013271
0.0118634
0.0106421
0.00958698
0.00868015
0.00790556
0.00724936
0.00669919
0.00624497
0.00587893
0.00559438
0.0053876
0.00525727
0.00520379
0.00523125
0.00534855
0.0055693
0.00591562
0.00641968
0.00712917
0.00811413
0.00947732
0.0113684
0.0140003
0.0176542
0.0226603
0.0294373
0.0378859
0.131482
0.143173
0.128046
0.112025
0.0971256
0.0840823
0.0730393
0.063808
0.0560905
0.0495963
0.0440277
0.0390883
0.0346956
0.0307862
0.0273135
0.0242192
0.0214753
0.0190493
0.0169114
0.015034
0.0133917
0.0119608
0.0107188
0.00964481
0.00872117
0.00793189
0.00726295
0.00670187
0.00623876
0.00586469
0.005572
0.0053568
0.00521767
0.00515479
0.0051721
0.00527805
0.0054858
0.00581698
0.00630349
0.00699336
0.00795857
0.00930741
0.0112025
0.0138844
0.017686
0.0230199
0.0304125
0.0398608
0.123483
0.136758
0.123685
0.109231
0.0953691
0.0830191
0.0724623
0.063579
0.0561018
0.0497644
0.0443004
0.0394177
0.035047
0.0311338
0.0276396
0.0245209
0.0217435
0.019282
0.0171093
0.0151999
0.013527
0.0120676
0.0108006
0.00970578
0.00876395
0.00795869
0.0072757
0.00670208
0.00622728
0.00584273
0.00554103
0.00531809
0.00517103
0.00509876
0.00510503
0.00519813
0.00539095
0.00570458
0.00617019
0.00683543
0.00777319
0.00909601
0.0109781
0.0136875
0.0176129
0.0232615
0.0312824
0.0417993
0.118167
0.132233
0.120346
0.106817
0.0936382
0.0818493
0.0717685
0.063267
0.0560683
0.049918
0.0445803
0.0397684
0.0354276
0.0315152
0.0280013
0.0248538
0.0220398
0.0195402
0.0173284
0.0153806
0.0136748
0.0121862
0.0108926
0.00977421
0.0088122
0.00798953
0.00729153
0.00670496
0.00621815
0.00582213
0.00550922
0.0052751
0.00511777
0.00503554
0.00503116
0.00511087
0.00528712
0.00558065
0.00602161
0.00665639
0.00755732
0.00883865
0.0106824
0.0133795
0.0173719
0.0232602
0.0318046
0.0432572
0.115411
0.129682
0.118129
0.104822
0.0919181
0.0805472
0.0709401
0.0628601
0.0559794
0.050046
0.0448556
0.0401286
0.0358261
0.031919
0.028388
0.0252105
0.0223582
0.0198154
0.0175632
0.0155767
0.0138338
0.0123129
0.0109909
0.00984672
0.00886185
0.00801943
0.00730459
0.00670397
0.00620597
0.0057999
0.00547672
0.00523202
0.00506336
0.00496865
0.00495106
0.00501656
0.00517614
0.00544828
0.00586174
0.00646103
0.00731645
0.00854115
0.01032
0.0129596
0.0169476
0.0229669
0.0318493
0.0439089
0.115076
0.129079
0.116999
0.103162
0.090125
0.0790681
0.0699642
0.0623564
0.0558321
0.0501419
0.045117
0.0404871
0.0362307
0.032335
0.0287907
0.02558
0.0226892
0.0201049
0.0178084
0.0157812
0.0139996
0.0124425
0.0110887
0.00991775
0.00891013
0.00804823
0.00731663
0.00670171
0.00619139
0.00577378
0.00544008
0.00518658
0.00500868
0.0049027
0.00487145
0.00492042
0.00506107
0.00531232
0.00569814
0.00625968
0.007064
0.00822058
0.00991192
0.0124529
0.01637
0.0224173
0.0314451
0.0437183
0.11702
0.130311
0.116795
0.101638
0.0881261
0.0773682
0.0688439
0.0617664
0.055631
0.0502043
0.0453578
0.0408349
0.0366316
0.0327503
0.0291968
0.0259553
0.023025
0.0203975
0.0180564
0.0159846
0.0141636
0.0125724
0.011189
0.00999217
0.00896192
0.00808033
0.00733162
0.00670231
0.00618028
0.0057515
0.00540627
0.00514253
0.00495496
0.00483832
0.00479531
0.00482886
0.00495047
0.00517771
0.00553526
0.00605971
0.00681087
0.00789207
0.00947889
0.0118881
0.0156825
0.0216855
0.0307145
0.0428579
0.121117
0.133245
0.117281
0.0999982
0.0858042
0.0754448
0.0676124
0.0611168
0.05539
0.0502373
0.0455752
0.0411608
0.0370157
0.0331594
0.029592
0.0263221
0.0233541
0.0206817
0.0182967
0.0161847
0.014327
0.0127025
0.0112895
0.0100666
0.00901283
0.00811123
0.00734637
0.006703
0.00616997
0.00573032
0.00537481
0.00510178
0.00490477
0.00477632
0.00472157
0.0047406
0.00484463
0.00505109
0.00538138
0.00586793
0.00656856
0.00757338
0.00904752
0.0113061
0.0149544
0.0209032
0.0298889
0.0416744
0.127094
0.137679
0.118131
0.0979816
0.0831128
0.0733542
0.0663319
0.0604462
0.0551305
0.050253
0.0457588
0.0414656
0.0373813
0.0335433
0.0299651
0.0266671
0.0236622
0.0209515
0.0185277
0.0163776
0.0144844
0.0128278
0.0113843
0.0101364
0.00906346
0.00814412
0.0073624
0.00670546
0.0061625
0.00571254
0.00534665
0.00506502
0.00485933
0.0047194
0.00465345
0.00465694
0.00474443
0.00493388
0.00524099
0.00569491
0.00634507
0.00727698
0.0086373
0.0107377
0.0142383
0.0201727
0.0291341
0.040449
0.134657
0.143445
0.119016
0.0954268
0.0801114
0.071203
0.0650719
0.0597884
0.0548734
0.0502537
0.0459384
0.041751
0.0377192
0.0338887
0.0303011
0.0269846
0.0239513
0.0212055
0.0187437
0.0165566
0.0146296
0.012943
0.0114751
0.0102064
0.00911261
0.0081762
0.00737918
0.00670929
0.00615759
0.00569781
0.00532172
0.00503196
0.00481788
0.00466582
0.00458915
0.00457729
0.00464887
0.00482121
0.0051088
0.00553565
0.00614219
0.00700494
0.00825429
0.010195
0.0135573
0.0195476
0.0285165
0.0391758
0.143358
0.145723
0.119551
0.0922887
0.0769416
0.0691129
0.0638932
0.0591754
0.0546126
0.0502568
0.0461042
0.0420075
0.0380182
0.0342056
0.0306137
0.0272775
0.0242156
0.0214376
0.0189436
0.016725
0.0147685
0.0130556
0.0115656
0.0102745
0.00916232
0.00821007
0.00739856
0.00671606
0.00615647
0.00568707
0.00530082
0.00500339
0.00478148
0.0046173
0.00453137
0.00450511
0.00456332
0.00472277
0.00499403
0.00539805
0.00597035
0.00676754
0.00791059
0.00969348
0.0129308
0.0190639
0.0280588
0.0378602
0.138888
0.13775
0.11949
0.0887003
0.0737969
0.0671951
0.0628408
0.0586224
0.0544119
0.0502872
0.0462588
0.0422463
0.0383034
0.0345091
0.0309126
0.02756
0.0244737
0.0216674
0.0191434
0.0168951
0.0149134
0.0131761
0.0116622
0.010351
0.00922106
0.00825318
0.00742696
0.00673132
0.00616425
0.00568541
0.00528937
0.00498498
0.00475591
0.00457945
0.00448534
0.00444514
0.00449194
0.00464121
0.00489999
0.00528524
0.00582522
0.00656908
0.00761619
0.00925788
0.0124142
0.0188855
0.0281891
0.0374991
0.130744
0.130546
0.118702
0.0849831
0.0709155
0.0655994
0.0620203
0.0582235
0.0543547
0.0504195
0.0465171
0.0425928
0.0386956
0.0349199
0.0313206
0.0279514
0.0248388
0.0220005
0.0194414
0.0171604
0.0151419
0.0133695
0.0118236
0.0104837
0.0093281
0.00833833
0.00749236
0.00677934
0.00620201
0.00571112
0.00530308
0.0049902
0.0047528
0.00456257
0.00446035
0.00440602
0.004443
0.00458442
0.00483382
0.00520503
0.00571858
0.00641913
0.00738302
0.00890465
0.0120169
0.0190559
0.0291998
0.0393779
0.124196
0.124279
0.117337
0.0814732
0.0684971
0.0644788
0.0615975
0.0582543
0.0546804
0.0509543
0.0471936
0.0433867
0.0395489
0.0357911
0.0321707
0.0287548
0.0255755
0.0226597
0.0200215
0.0176599
0.0155671
0.0137288
0.0121248
0.0107337
0.00953449
0.00850873
0.00763189
0.00689245
0.00629845
0.00579026
0.00536614
0.00504195
0.00479452
0.00458897
0.00447879
0.0044102
0.0044386
0.00457321
0.00481234
0.00516388
0.00563609
0.00625338
0.00706216
0.00834565
0.0112412
0.0182523
0.0273696
0.0350778
0.118948
0.119063
0.115511
0.0782246
0.0664143
0.0635966
0.0612716
0.0583345
0.055029
0.0514825
0.0478343
0.0441237
0.0403258
0.0365674
0.0329058
0.0293793
0.0261072
0.0231197
0.020426
0.0180232
0.0159056
0.0140519
0.0124371
0.0110399
0.00983583
0.00880576
0.00792288
0.00717568
0.00658026
0.00606578
0.00563276
0.00530168
0.00504583
0.00482268
0.00470386
0.00461485
0.00462308
0.00473004
0.00492233
0.00519513
0.00554287
0.00598541
0.00660772
0.00812655
0.0127405
0.0260653
0.0488501
0.0277709
0.115207
0.115247
0.113281
0.0753458
0.0646643
0.0628808
0.0609467
0.0582803
0.0551717
0.0517393
0.0479405
0.0440866
0.0402198
0.0365109
0.0330434
0.0299124
0.0271479
0.024761
0.0227245
0.0209874
0.0194969
0.0181923
0.0170261
0.0159654
0.0149856
0.0140807
0.0132323
0.0124512
0.0118289
0.0112376
0.0107048
0.0103107
0.00999886
0.00966481
0.00952037
0.00936362
0.00939003
0.00957799
0.00985754
0.0103047
0.0110328
0.0122713
0.0146443
0.0210678
0.040066
0.0850809
0.068615
0.0491798
0.112371
0.112132
0.111318
0.0733636
0.0637913
0.0628279
0.0610938
0.0584412
0.0552246
0.0517454
0.0484963
0.0459803
0.0445139
0.0442293
0.0449067
0.0461326
0.0474737
0.048609
0.0493327
0.0495405
0.0492329
0.0484538
0.0472974
0.0458727
0.0442377
0.042467
0.0406219
0.0388403
0.0374646
0.0360629
0.0348009
0.0339892
0.0335006
0.0331369
0.0337017
0.0344053
0.0362131
0.0385822
0.0404863
0.0404749
0.0387229
0.0367584
0.0361642
0.0398777
0.0502253
0.0637977
0.0837637
0.100232
0.110071
0.109944
0.110347
0.0736335
0.0649048
0.0648397
0.063377
0.0610067
0.0591535
0.0591784
0.061414
0.0651323
0.0694833
0.0739112
0.0780481
0.0817053
0.0847097
0.0869679
0.0884413
0.0891144
0.0890626
0.0883896
0.0872528
0.0858105
0.0841951
0.0825392
0.0808597
0.0794151
0.0785616
0.0773883
0.0759931
0.0745645
0.0722105
0.0682345
0.0631926
0.0577574
0.0556145
0.0622642
0.0870672
0.133686
0.107001
0.0783354
0.0688141
0.0716438
0.0835381
0.0974034
0.108932
0.109753
0.108857
0.109976
0.110895
0.0775358
0.0689986
0.0681908
0.0657554
0.0644593
0.0655206
0.0683401
0.0720389
0.0760329
0.0800585
0.0840479
0.0879762
0.0918177
0.095469
0.098809
0.10163
0.103816
0.105438
0.106558
0.107283
0.107736
0.108026
0.108233
0.108345
0.108733
0.109743
0.110861
0.112006
0.112124
0.108306
0.098022
0.0840302
0.0719804
0.0657068
0.0704939
0.0820372
0.0904516
0.0997242
0.108985
0.113645
0.114188
0.114292
0.11348
0.112026
0.112016
0.109832
0.112658
0.0976526
0.0747643
0.066876
0.0633204
0.0612332
0.0623636
0.0652293
0.0686616
0.0722378
0.0758671
0.0795109
0.0831177
0.0865964
0.0898626
0.092828
0.0954339
0.0970443
0.0978842
0.0984614
0.0988526
0.0991082
0.0992647
0.0993331
0.0993205
0.0992431
0.0989709
0.0986859
0.0987018
0.0989834
0.0996927
0.100344
0.100372
0.0991179
0.0947446
0.0878823
0.0808997
0.07534
0.0703096
0.0653636
0.0614483
0.0583123
0.0565176
0.0562335
0.0572386
0.059954
0.0641658
0.122038
0.0981251
0.073634
0.0650146
0.0598928
0.057136
0.0585253
0.061488
0.0648879
0.0683435
0.0718792
0.0753787
0.0785996
0.0814158
0.0837951
0.085734
0.0872458
0.088394
0.0892831
0.0900095
0.0903187
0.090456
0.0905366
0.0905816
0.0906007
0.0906105
0.0906193
0.0905065
0.0903366
0.0904213
0.0914523
0.0934186
0.0959198
0.096909
0.0963583
0.0948242
0.0905122
0.0761387
0.0621884
0.0548335
0.0510205
0.0495845
0.0495837
0.050874
0.0530996
0.0552886
0.057593
0.0596203
0.10963
0.0703825
0.0629054
0.0584193
0.0553504
0.0555886
0.0584362
0.062216
0.066808
0.0717519
0.0758062
0.0786377
0.0805216
0.0816189
0.0820553
0.0821504
0.0822073
0.0822711
0.0823607
0.0825073
0.0827402
0.0830391
0.0833683
0.0837017
0.0840295
0.0843716
0.0847465
0.0849864
0.0848552
0.0844136
0.0845253
0.086554
0.0906196
0.0952396
0.0959489
0.0931484
0.0880886
0.0797208
0.0736308
0.0707243
0.0701606
0.0709433
0.0733019
0.0771294
0.0810257
0.0833671
0.0842963
0.0833712
0.0756145
0.0625839
0.0584866
0.0549538
0.0536075
0.056218
0.0623976
0.0681373
0.07198
0.0752503
0.0777633
0.0793778
0.0802911
0.0806687
0.0806623
0.080305
0.0795858
0.0787708
0.07816
0.0778618
0.0778593
0.078037
0.0783041
0.0786009
0.0788909
0.079176
0.0794716
0.0797668
0.079834
0.0791942
0.0774692
0.0772973
0.0801415
0.0859898
0.090706
0.0905618
0.0888539
0.091329
0.0945864
0.0965842
0.097762
0.0983139
0.0983631
0.0983758
0.0990004
0.0993645
0.0988333
0.0978989
0.0662252
0.060061
0.0570636
0.0544416
0.0553884
0.0620084
0.0671085
0.0712931
0.073954
0.0757119
0.0768483
0.0774926
0.0778192
0.0779707
0.0780747
0.078065
0.0778331
0.0775265
0.077243
0.0770007
0.0768524
0.0767961
0.0767928
0.076838
0.0769087
0.0770026
0.0771312
0.0772882
0.0774547
0.0773006
0.075818
0.073195
0.0720395
0.0744761
0.0835868
0.0907445
0.0936766
0.0974732
0.0991406
0.0986326
0.0976001
0.0970224
0.0973658
0.0988704
0.101123
0.102255
0.101643
0.100324
0.0641299
0.0601949
0.0593534
0.0589223
0.0603356
0.0654614
0.0696746
0.0725432
0.0740076
0.0746501
0.0749373
0.0750107
0.0750012
0.0749928
0.0750952
0.0752588
0.075432
0.075635
0.0758417
0.0760317
0.0762359
0.0764336
0.0766995
0.0769933
0.0772948
0.0775778
0.0778251
0.07804
0.0782967
0.0786202
0.0786005
0.0763453
0.0733125
0.0719346
0.0775887
0.0883907
0.095515
0.100264
0.101936
0.10139
0.100518
0.10049
0.101473
0.10248
0.102711
0.10116
0.0984793
0.0962554
0.0649333
0.0639704
0.0620746
0.0614733
0.0642801
0.0693329
0.0726967
0.0742422
0.0746101
0.0744161
0.0740218
0.0735848
0.0731913
0.0728817
0.0728424
0.0729566
0.0731385
0.0733835
0.0736809
0.0740382
0.0744777
0.0749246
0.0754029
0.0758774
0.0763215
0.0768059
0.0772636
0.0776636
0.0780302
0.0784841
0.0792318
0.0791505
0.0768399
0.0743219
0.0749332
0.0801372
0.0889986
0.0959659
0.099853
0.101344
0.101562
0.101209
0.100082
0.097937
0.0945798
0.0907253
0.0874062
0.0847222
0.0690013
0.0676277
0.0669419
0.0682634
0.0723307
0.0763075
0.0778788
0.0778991
0.0771684
0.0762254
0.0752922
0.0744532
0.0737432
0.0731719
0.0727578
0.0724698
0.0722898
0.072212
0.0722234
0.0723722
0.0727338
0.0731371
0.0735722
0.0740199
0.0744621
0.074957
0.0754792
0.0759493
0.0763808
0.0768076
0.0774634
0.0784836
0.0786314
0.076615
0.0748708
0.0737969
0.0765435
0.0821235
0.0878558
0.090826
0.0913728
0.0901877
0.0873304
0.0821978
0.0779973
0.0757028
0.0753365
0.0754904
0.0782461
0.0767791
0.0799698
0.0863062
0.0899898
0.0902091
0.0891079
0.0875774
0.0853341
0.0832342
0.0813598
0.0797089
0.0782708
0.0770341
0.0759809
0.0750324
0.0742606
0.0736639
0.0732294
0.0729456
0.0727997
0.072752
0.0727915
0.0729053
0.0730764
0.0733695
0.0738312
0.074282
0.0747093
0.0750789
0.0754671
0.0761815
0.0774472
0.0778684
0.0755095
0.0736553
0.0721423
0.072015
0.0732786
0.0746519
0.075025
0.0747526
0.0742658
0.0735204
0.0729825
0.0730089
0.0741521
0.0754534
0.090624
0.0939781
0.097912
0.0998252
0.0999415
0.0997702
0.0991565
0.0982179
0.0970458
0.0956888
0.0941778
0.092537
0.0907892
0.0889633
0.0870323
0.0845308
0.0823268
0.0804223
0.078811
0.07748
0.0764073
0.0755689
0.0748611
0.0743438
0.0740086
0.07383
0.0737785
0.073814
0.0739206
0.0740513
0.074187
0.0744252
0.0752391
0.0770254
0.0761403
0.0748619
0.0742375
0.0737656
0.0736635
0.0739168
0.0742336
0.0744656
0.0748296
0.0753882
0.0757384
0.0764523
0.0777793
0.0794167
0.0994611
0.099315
0.0970755
0.0946967
0.0943318
0.0955254
0.0967235
0.0977119
0.0985148
0.0991499
0.0996059
0.0998574
0.0998705
0.0996086
0.099042
0.0981485
0.0969305
0.0954102
0.0936337
0.0916665
0.0895862
0.0874688
0.0847449
0.082337
0.080359
0.0787774
0.0775508
0.0766374
0.0760124
0.0756183
0.0753061
0.0750921
0.0751557
0.0761033
0.0768073
0.075614
0.0751377
0.0756155
0.0761555
0.0764405
0.0764465
0.0765784
0.0769415
0.0775842
0.0783543
0.0794471
0.0805062
0.0820778
0.095586
0.0926463
0.0913865
0.0907136
0.0906501
0.0909694
0.0913419
0.0917245
0.0921285
0.0925706
0.0930626
0.0936151
0.0942379
0.0949359
0.0957041
0.0965281
0.0973823
0.0982198
0.0989705
0.0995457
0.0998504
0.099802
0.0993414
0.0984498
0.0971537
0.0955227
0.093654
0.0916411
0.0896066
0.0876444
0.0852466
0.0830724
0.0813262
0.0801627
0.0797999
0.0791313
0.0782414
0.0781026
0.0780956
0.0780956
0.0780926
0.0782528
0.0785669
0.0788952
0.0793669
0.0801577
0.0805107
0.0813396
0.0906965
0.0902085
0.0900985
0.0900505
0.0900455
0.0900738
0.0901073
0.0901431
0.0901827
0.0902282
0.0902818
0.090346
0.0904241
0.0905203
0.0906393
0.090787
0.0909718
0.0912038
0.0914947
0.0918576
0.0923057
0.0928527
0.0935075
0.0942761
0.0951519
0.0961077
0.0970936
0.0980464
0.098871
0.0994824
0.0998218
0.0998466
0.0995638
0.0989953
0.0983033
0.0976022
0.0967735
0.0958387
0.094958
0.0942222
0.0935474
0.0930786
0.0929384
0.0931678
0.0936278
0.0937676
0.0934684
0.0930058
0.0900188
0.0900043
0.090002
0.090001
0.090001
0.0900017
0.0900025
0.0900034
0.0900044
0.0900055
0.0900069
0.0900085
0.0900106
0.0900131
0.0900163
0.0900204
0.0900255
0.0900321
0.0900407
0.0900518
0.0900662
0.0900849
0.0901092
0.0901408
0.0901819
0.0902353
0.090304
0.0903928
0.0905049
0.0906443
0.0908167
0.0910234
0.0912642
0.0915531
0.0918639
0.0921587
0.0924842
0.0928244
0.0931656
0.0934994
0.0938121
0.0940511
0.0941812
0.0941071
0.0938842
0.0938675
0.0940982
0.0946867
0.0903038
0.0900774
0.090039
0.0900278
0.0900231
0.0900208
0.09002
0.0900203
0.0900218
0.0900245
0.0900293
0.0900392
0.0900736
0.0901304
0.0900385
0.0900002
0.0900006
0.0900015
0.0900053
0.0900116
0.0900217
0.0900386
0.0900674
0.0901164
0.0901982
0.0903316
0.0905536
0.0909735
0.0919165
0.0945844
0.0932968
0.092272
0.0913716
0.0910061
0.090839
0.0907564
0.0907217
0.0907292
0.0907738
0.0908592
0.0910102
0.091318
0.0921929
0.0933141
0.0913468
0.0900078
0.0900018
0.0900725
0.0902001
0.0903969
0.090691
0.0911399
0.0918163
0.0930201
0.0944278
0.0960742
0.0977755
0.0992076
0.0999489
0.0974721
0.0983818
0.0991416
0.0979401
0.0967051
0.0957543
0.0953392
0.0951525
0.0951776
0.095385
0.0957756
0.0964175
0.0975214
0.0991254
0.0996396
0.0975083
0.0907003
0.0900623
0.0909518
0.0919892
0.0933357
0.0949609
0.0967713
0.0984698
0.0997096
0.099772
0.0988403
0.0972179
0.0954764
0.0951047
0.0917667
0.100062
0.0971369
0.0978024
0.0989362
0.0995708
0.0997582
0.0998148
0.0998109
0.0997502
0.0995782
0.0991313
0.0978711
0.0945651
0.0919182
0.097623
0.0965541
0.0921906
0.0951359
0.0974445
0.0991664
0.0998765
0.099365
0.0977444
0.0951123
0.0925097
0.0902743
0.088761
0.0886341
0.0923028
0.093463
0.0986237
0.0889164
0.0858506
0.0871668
0.0889121
0.0899323
0.0903856
0.0903466
0.0898313
0.0888096
0.0869761
0.0829086
0.0784847
0.0781876
0.0866886
0.0972458
0.0994926
0.0998553
0.0995414
0.0980128
0.0955732
0.0927307
0.0900163
0.0876195
0.0858729
0.0853471
0.0863058
0.0890656
0.0989654
0.122011
0.0966223
0.0814812
0.0746169
0.0731169
0.0733531
0.073722
0.073848
0.0737464
0.073356
0.07265
0.0714814
0.0695506
0.0679922
0.0703191
0.0763011
0.0791482
0.0923649
0.0964797
0.0949677
0.092626
0.0901065
0.0879764
0.0863803
0.0857548
0.086517
0.0884491
0.0912227
0.0957477
0.105535
0.0838231
0.0953725
0.0781122
0.0697955
0.0667643
0.0657724
0.0654118
0.0651337
0.0649537
0.0647465
0.0644409
0.0638865
0.0629369
0.0625417
0.0662566
0.0716914
0.0672794
0.0741895
0.0896077
0.0907025
0.0897987
0.0886935
0.0881327
0.0884576
0.0896954
0.0918115
0.0947066
0.0990188
0.106582
0.101785
0.0633598
0.0955204
0.0766352
0.0679957
0.0640165
0.0623235
0.0615278
0.0609566
0.0606659
0.0604866
0.0603012
0.059869
0.0591128
0.0590388
0.0633207
0.0698558
0.0627015
0.064438
0.080467
0.0871875
0.0888172
0.0894596
0.0904185
0.0920139
0.0942516
0.0971412
0.101019
0.107937
0.117437
0.0944702
0.0553665
0.0974485
0.0782016
0.0668961
0.0620254
0.0602766
0.0593966
0.0585823
0.0581093
0.0578163
0.0574787
0.0565287
0.0551628
0.0551441
0.0588515
0.0689922
0.0608405
0.0599265
0.0725433
0.0818014
0.0875825
0.0901023
0.092302
0.0947174
0.0975466
0.101167
0.106541
0.117084
0.113715
0.0901151
0.0540905
0.100898
0.0847756
0.0700247
0.0626938
0.0588448
0.0565358
0.0549396
0.054099
0.0537028
0.0535741
0.0535385
0.0538669
0.0553538
0.0572273
0.0682943
0.0599773
0.0570361
0.0665135
0.0760792
0.0841186
0.0895882
0.0929058
0.0960108
0.0994072
0.103871
0.110838
0.116154
0.108907
0.0890664
0.0569937
0.103598
0.0930477
0.0796024
0.0690975
0.0629937
0.0590525
0.056687
0.0553994
0.05484
0.0548382
0.0553868
0.0571297
0.0611184
0.0620638
0.0692555
0.0603092
0.0557369
0.0618541
0.0706998
0.0793413
0.087349
0.092187
0.0960293
0.100017
0.105207
0.113291
0.113619
0.10597
0.0901589
0.0627601
0.101487
0.0976827
0.0946207
0.0855595
0.0759011
0.0694667
0.0659779
0.0639752
0.063122
0.0632864
0.0646802
0.0687988
0.0783482
0.0715533
0.0736575
0.0622787
0.0562302
0.0586307
0.0663404
0.0745907
0.0828934
0.0902066
0.094976
0.0995701
0.105264
0.113818
0.11162
0.104611
0.092223
0.0703472
0.0961343
0.0938541
0.0986115
0.0990903
0.0968069
0.0935022
0.0905355
0.08839
0.0874204
0.0878134
0.0898014
0.0944829
0.0944133
0.0790534
0.0795106
0.0668312
0.0586656
0.0579641
0.0631612
0.0705759
0.0783738
0.0865804
0.093075
0.0983489
0.104425
0.111576
0.110022
0.104103
0.0944068
0.0783724
0.0930341
0.0902139
0.0922751
0.0942562
0.0960391
0.0972238
0.0979975
0.0984171
0.0985382
0.0983563
0.0977396
0.0976074
0.0998962
0.105194
0.0851802
0.0758717
0.0641876
0.0615465
0.062792
0.068272
0.0752491
0.0829189
0.0909318
0.0969255
0.103395
0.109551
0.109041
0.10405
0.0962015
0.0853457
0.0920902
0.0902792
0.0900747
0.0902425
0.0904724
0.0907209
0.0909525
0.0911532
0.0913142
0.0914628
0.0917408
0.0935657
0.107638
0.143096
0.0938417
0.0875934
0.0745019
0.0696978
0.0679221
0.0698229
0.0753594
0.082197
0.0899922
0.0966288
0.103458
0.109354
0.109242
0.104442
0.0974103
0.090287
0.0917444
0.0908695
0.0902961
0.090205
0.0902018
0.0902293
0.0902901
0.0904016
0.0905989
0.0909598
0.0917157
0.0940651
0.110418
0.143171
0.109906
0.0954526
0.090105
0.0845456
0.0810974
0.0798422
0.0821596
0.0877083
0.093887
0.0996662
0.106722
0.112585
0.111232
0.105171
0.0977513
0.0927433
0.0914755
0.0910192
0.0905076
0.0904257
0.0904412
0.0904825
0.0905575
0.0906857
0.0909065
0.0913053
0.0921318
0.0944002
0.109379
0.144894
0.126017
0.0990377
0.0996968
0.0981355
0.0969376
0.0966454
0.0968277
0.0988513
0.102327
0.10732
0.115214
0.119628
0.114191
0.105348
0.0968747
0.0928987
0.0912123
0.0909258
0.09052
0.090445
0.090472
0.0905225
0.0906042
0.0907378
0.090962
0.0913612
0.0921851
0.0943061
0.107116
0.145242
0.13406
0.102478
0.101863
0.102911
0.103466
0.104171
0.105423
0.1074
0.110813
0.117015
0.128047
0.126387
0.115726
0.104679
0.0958521
0.0925866
0.0909562
0.090771
0.090468
0.0903981
0.0904281
0.0904813
0.0905639
0.0906974
0.0909188
0.0913094
0.0921104
0.0940673
0.10466
0.137595
0.134744
0.106458
0.101519
0.102384
0.103425
0.104748
0.106665
0.109785
0.115039
0.123974
0.138576
0.130197
0.116986
0.105576
0.0971973
0.0944796
0.0907225
0.0906118
0.0904016
0.0903401
0.0903712
0.0904262
0.0905088
0.0906411
0.090858
0.0912363
0.0920032
0.0937858
0.102313
0.129646
0.131206
0.109142
0.101664
0.101419
0.102164
0.103662
0.106058
0.109926
0.116264
0.126391
0.141862
0.133786
0.12027
0.109313
0.10152
0.0991686
0.0905223
0.09047
0.0903348
0.0902852
0.090317
0.0903734