/*--------------------------------*- C++ -*----------------------------------*\
| =========                 |                                                 |
| \\      /  F ield         | OpenFOAM: The Open Source CFD Toolbox           |
|  \\    /   O peration     | Version:  2212                                  |
|   \\  /    A nd           | Website:  www.openfoam.com                      |
|    \\/     M anipulation  |                                                 |
\*---------------------------------------------------------------------------*/
FoamFile
{
    version     2.0;
    format      ascii;
    arch        "LSB;label=32;scalar=64";
    class       volScalarField;
    location    "10000";
    object      dwall;
}
// * * * * * * * * * * * * * * * * * * * * * * * * * * * * * * * * * * * * * //

dimensions      [0 1 0 0 0 0 0];

internalField   nonuniform List<scalar> 
18080
(
0.0760097
0.0760063
0.0760024
0.0759515
0.0752823
0.0742323
0.0729746
0.0710063
0.0692215
0.066956
0.0648743
0.0627282
0.0605406
0.0583332
0.056126
0.0539376
0.0517849
0.0496832
0.047877
0.0458489
0.043902
0.0420457
0.040288
0.0386346
0.0370897
0.0356576
0.0343394
0.0332595
0.0320913
0.031037
0.0300947
0.0292593
0.0285271
0.0278926
0.0274454
0.0269272
0.0264952
0.0261421
0.0258609
0.025767
0.0255547
0.0254015
0.0253011
0.0252472
0.0252286
0.0252246
0.0252216
0.0252187
0.0757145
0.0757061
0.0756966
0.0756397
0.0749732
0.073914
0.0726527
0.0706873
0.0689012
0.066644
0.0645637
0.0624199
0.0602356
0.0580324
0.0558302
0.0536475
0.0515011
0.049406
0.0475956
0.0455745
0.0436347
0.0417856
0.0400348
0.0383881
0.0368495
0.0354231
0.0341101
0.0330264
0.0318623
0.0308114
0.0298718
0.0290383
0.0283072
0.0276731
0.0272214
0.0267025
0.0262691
0.0259139
0.0256302
0.0255321
0.0253164
0.0251594
0.0250549
0.0249965
0.0249733
0.0249648
0.0249575
0.0249504
0.0753136
0.0752989
0.0752827
0.0752185
0.0745565
0.0734857
0.0722204
0.0702598
0.0684729
0.0665526
0.0641499
0.06201
0.0598309
0.0576339
0.0554391
0.0532645
0.051127
0.0490413
0.0472256
0.0452143
0.0432844
0.041445
0.0397037
0.0380661
0.0365361
0.0351177
0.0338119
0.0327235
0.0315651
0.0305189
0.0295831
0.0287525
0.0280232
0.02739
0.0269328
0.0264132
0.0259784
0.025621
0.0253342
0.0252312
0.0250114
0.0248499
0.0247403
0.0246765
0.0246478
0.0246337
0.024621
0.0246089
0.0748021
0.0747806
0.0747566
0.0746843
0.0740293
0.0729449
0.0716758
0.0697224
0.0679358
0.0660174
0.0636334
0.0614994
0.0593277
0.0571395
0.0549546
0.052791
0.0506653
0.048592
0.0467702
0.0447716
0.0428545
0.0410277
0.0392987
0.0376728
0.0361539
0.0347458
0.0334493
0.0323555
0.0312045
0.0301646
0.0292339
0.0284073
0.0276808
0.0270492
0.0265858
0.0260659
0.0256298
0.0252702
0.0249803
0.0248717
0.0246475
0.0244809
0.0243658
0.024296
0.0242609
0.0242406
0.0242219
0.0242041
0.074156
0.0741269
0.0740944
0.0740132
0.0733684
0.0722684
0.070996
0.0690533
0.0672684
0.0653539
0.0629948
0.0608694
0.0587081
0.056532
0.0543605
0.0522114
0.0501011
0.0482682
0.0462153
0.0442331
0.0423323
0.0405217
0.0388083
0.0371974
0.0356926
0.0342976
0.033165
0.031913
0.0307717
0.02974
0.0288162
0.027995
0.0272724
0.0266434
0.026173
0.0256535
0.0252165
0.0248549
0.024562
0.0244473
0.0242185
0.0240465
0.0239254
0.023849
0.023807
0.0237798
0.0237545
0.0237303
0.0733444
0.0733071
0.0732655
0.0731746
0.0728967
0.0717859
0.0701521
0.0682248
0.0664437
0.0645358
0.0622095
0.0600964
0.0579495
0.0557896
0.0536359
0.051506
0.0494158
0.047575
0.0455428
0.0435816
0.0417017
0.0399116
0.0382181
0.0366262
0.0351393
0.0337609
0.0326223
0.0313843
0.0302554
0.0292345
0.0283197
0.0275058
0.0267888
0.0262899
0.0256855
0.0251673
0.0247301
0.024367
0.0240713
0.0239502
0.0237167
0.0235391
0.0234116
0.0233282
0.0232788
0.0232441
0.0232117
0.0231807
0.0723307
0.0722848
0.0722335
0.0721327
0.0718466
0.0707344
0.0691101
0.0672044
0.0654303
0.0635326
0.061537
0.0591535
0.0570261
0.0548878
0.0527576
0.0506526
0.0488031
0.0467383
0.0447327
0.0427982
0.0409447
0.0391805
0.0375121
0.0359441
0.0344797
0.0331222
0.0319767
0.0307565
0.0296434
0.0286364
0.0277334
0.0269292
0.0262198
0.0257137
0.0251137
0.024598
0.0241617
0.0237977
0.0234998
0.023372
0.023134
0.0229508
0.0228168
0.0227262
0.0226689
0.0226265
0.0225865
0.0225483
0.0710733
0.0710185
0.0709574
0.0708465
0.0705528
0.0694414
0.0678318
0.0659561
0.0641931
0.0623104
0.0603334
0.0582867
0.0559095
0.0537997
0.0519527
0.0498442
0.0477666
0.0457351
0.0437632
0.0418623
0.0400421
0.0383104
0.0366733
0.0351352
0.033699
0.0325195
0.0312139
0.0300161
0.0289232
0.0279337
0.0270459
0.0262544
0.0255553
0.0250414
0.0244479
0.0239365
0.0235025
0.0231389
0.0228396
0.0227052
0.0224631
0.0222747
0.0221343
0.0220364
0.0219712
0.0219208
0.0218731
0.0218276
0.0695263
0.0694628
0.069392
0.0692714
0.0689711
0.067864
0.066276
0.0644409
0.0626945
0.060833
0.0588815
0.0568642
0.0548036
0.0527212
0.0506366
0.0485678
0.0465314
0.0445418
0.0426122
0.0407534
0.0389746
0.0372832
0.0356849
0.0341839
0.0327825
0.0315949
0.0303199
0.0291501
0.0280822
0.027115
0.0262466
0.0254715
0.0247859
0.0242636
0.0236793
0.0231745
0.0227447
0.0223832
0.0220839
0.0219431
0.0216979
0.021505
0.0213587
0.0212538
0.0211808
0.0211225
0.0210674
0.0210146
0.0676421
0.0675705
0.0674907
0.0673613
0.0670562
0.0659579
0.0644004
0.0626198
0.0608969
0.0590645
0.0571471
0.0551683
0.0531501
0.0511133
0.0490769
0.0470583
0.0450734
0.0431361
0.0412589
0.039452
0.0377243
0.0360825
0.0345319
0.0330761
0.0318588
0.0305193
0.0292819
0.0281466
0.0271099
0.0261704
0.0253263
0.0245721
0.023904
0.0233725
0.0228006
0.0223054
0.0218824
0.0215251
0.0212277
0.0210812
0.0208343
0.0206379
0.0204867
0.0203756
0.0202955
0.0202299
0.0201677
0.0201082
0.065375
0.0652964
0.0652087
0.0650721
0.064765
0.0636814
0.062166
0.0607469
0.0587664
0.0569726
0.0550995
0.0531702
0.0512058
0.0492264
0.0472502
0.0452939
0.0433726
0.0414996
0.0396864
0.037943
0.0362773
0.0346956
0.0332027
0.0319591
0.0305725
0.0292822
0.0280904
0.026997
0.0259983
0.0250928
0.0242787
0.0235505
0.0229971
0.0223626
0.0218073
0.0213252
0.0209123
0.020562
0.020269
0.0201177
0.0198711
0.019673
0.0195183
0.0194022
0.0193161
0.0192441
0.0191758
0.0191106
0.0626869
0.0626029
0.0625092
0.0623677
0.0620619
0.0610006
0.0595415
0.0581539
0.0562776
0.0545334
0.0527167
0.0508494
0.048952
0.0470434
0.0451411
0.0432609
0.0414167
0.0396213
0.0378854
0.036218
0.0346266
0.0331166
0.0318485
0.0304337
0.0291097
0.027878
0.0267408
0.0256975
0.0247444
0.0238798
0.023102
0.0224057
0.0218422
0.0212329
0.0206988
0.0202341
0.0198349
0.0194951
0.0192094
0.0190546
0.0188109
0.0186133
0.0184573
0.018338
0.0182474
0.0181706
0.0180977
0.018028
0.0595539
0.0594668
0.0593696
0.0592261
0.058926
0.0578959
0.0565105
0.0551641
0.0536845
0.0517382
0.0499911
0.0481999
0.0463839
0.0445609
0.0427474
0.0409579
0.0392057
0.0375023
0.0358576
0.0342799
0.0327756
0.0314816
0.0300604
0.028723
0.0274722
0.0263092
0.0252359
0.0242514
0.0233518
0.0225355
0.0218009
0.0212195
0.0205658
0.0199874
0.0194796
0.019037
0.0186559
0.0183304
0.0180557
0.0178988
0.0176609
0.0174667
0.0173117
0.0171916
0.0170987
0.0170191
0.0169434
0.0168711
0.0559751
0.0558875
0.0557897
0.0556478
0.0553581
0.0543698
0.0530788
0.0517838
0.0503665
0.0485997
0.0469365
0.0452361
0.0435167
0.0417947
0.0400854
0.0384021
0.0367569
0.0351602
0.033621
0.0322955
0.0308203
0.0294163
0.0280883
0.0268398
0.0256729
0.0245886
0.0235884
0.0226714
0.0218334
0.0210727
0.0204747
0.0197903
0.0191785
0.0186368
0.0181606
0.017745
0.0173865
0.0170795
0.0168195
0.0166619
0.0164333
0.0162457
0.0160948
0.0159765
0.0158838
0.0158037
0.0157275
0.0156548
0.0519793
0.051894
0.0517989
0.0516623
0.0513881
0.0504533
0.049281
0.0480479
0.0467044
0.0452714
0.0437686
0.041999
0.0403912
0.0387854
0.0371953
0.0356331
0.0342713
0.0327449
0.0312652
0.0298408
0.0284783
0.0271833
0.0259598
0.0248108
0.0237378
0.0227415
0.021823
0.0209813
0.0202121
0.0195955
0.018893
0.0182623
0.0176983
0.0171989
0.0167596
0.0163758
0.0160444
0.01576
0.0155186
0.0153611
0.0151454
0.0149677
0.014824
0.0147105
0.0146207
0.0145427
0.0144686
0.0143978
0.0476298
0.0475497
0.0474604
0.0473329
0.0470791
0.0462104
0.0453605
0.0440233
0.0427645
0.0414275
0.0400305
0.038591
0.0371255
0.035649
0.0341754
0.0327172
0.0312856
0.0298905
0.0285407
0.0272433
0.0260044
0.0248286
0.0237191
0.0226784
0.0217075
0.0208067
0.019977
0.0192171
0.0185749
0.0178708
0.017234
0.0166625
0.0161515
0.0156992
0.0153013
0.0149535
0.0146531
0.0143951
0.0141758
0.0140183
0.013819
0.0136544
0.0135209
0.0134151
0.0133311
0.0132578
0.0131882
0.0131218
0.0430239
0.0429516
0.042871
0.0427559
0.0425266
0.0417374
0.0409478
0.0398091
0.0386441
0.0374127
0.0361315
0.0348162
0.0334815
0.0321408
0.0308064
0.0294892
0.0281992
0.0269448
0.0257335
0.0245717
0.0234642
0.0224148
0.021426
0.0204997
0.0196366
0.0188364
0.0181683
0.017416
0.0167278
0.0161004
0.0155336
0.0150255
0.0145713
0.0141696
0.0138165
0.0135078
0.0132415
0.0130126
0.0128739
0.0126592
0.0124792
0.0123305
0.0122099
0.0121144
0.0120384
0.0119723
0.0119094
0.0118494
0.0382866
0.0382241
0.0381544
0.0380542
0.0378526
0.0371568
0.0364321
0.0355995
0.034466
0.0333471
0.0321885
0.0310042
0.0298072
0.0286089
0.0274201
0.0262502
0.0251075
0.0239991
0.0229315
0.0219096
0.0209376
0.0200181
0.0191532
0.0183438
0.0176304
0.0168557
0.0161381
0.0154791
0.014877
0.0143286
0.0138339
0.0133911
0.0129957
0.0126465
0.0123398
0.012072
0.0118413
0.0116432
0.0115009
0.0113114
0.0111527
0.0110219
0.0109163
0.0108329
0.010767
0.0107097
0.0106554
0.0106035
0.0335577
0.0335063
0.033449
0.0333652
0.0331928
0.0326052
0.0319475
0.0311977
0.0303691
0.0294753
0.0283326
0.0272825
0.0262259
0.0251727
0.0241317
0.0231107
0.0221167
0.0211554
0.0202318
0.01935
0.018601
0.0177409
0.0169259
0.0161586
0.0154404
0.0147725
0.0141548
0.0135886
0.0130722
0.0126025
0.0121794
0.0118016
0.0114645
0.0111675
0.0109071
0.01068
0.0104849
0.0103587
0.0101653
0.0100019
0.0098656
0.00975389
0.00966425
0.00959419
0.00953949
0.00949233
0.00944756
0.00940484
0.0289764
0.0289364
0.0288918
0.0288249
0.0286817
0.0282188
0.0276279
0.0269599
0.0262268
0.0254401
0.0246113
0.023751
0.0228696
0.0219767
0.021081
0.0201907
0.0193129
0.0184541
0.01762
0.0168157
0.0160454
0.0153123
0.0146191
0.0139676
0.0133591
0.0127941
0.0122727
0.0117958
0.0113618
0.0109674
0.010613
0.0102972
0.0100159
0.00976858
0.00955225
0.00936393
0.0092483
0.00905641
0.00889289
0.00875534
0.00864143
0.00854886
0.00847545
0.00841903
0.0083759
0.00833919
0.00830436
0.00827114
0.0246647
0.0246358
0.0246036
0.0245528
0.0244377
0.0242283
0.023592
0.0230026
0.0223607
0.0216762
0.0209589
0.0202177
0.0194613
0.0186979
0.0179345
0.0171779
0.0164341
0.0157082
0.0150051
0.0143287
0.0136824
0.0130688
0.0124898
0.0119469
0.0114408
0.010972
0.0105401
0.0101462
0.00978832
0.00946345
0.00917222
0.00891333
0.00868292
0.00848085
0.00830449
0.00818571
0.00799954
0.00783994
0.00770474
0.00759186
0.00749927
0.007425
0.00736716
0.00732388
0.00729192
0.00726532
0.00724013
0.0072161
0.0207164
0.0206976
0.0206766
0.0206406
0.020551
0.0203825
0.0199328
0.0194169
0.01886
0.0182704
0.0176565
0.0170255
0.0163848
0.0157409
0.0150995
0.0144662
0.0138455
0.0132419
0.0126589
0.0120996
0.0115667
0.0110621
0.0105871
0.0101427
0.00972938
0.00934717
0.00899564
0.00867583
0.00838571
0.00812236
0.00788667
0.00767753
0.00749134
0.00732835
0.00718475
0.00700811
0.00685547
0.00672544
0.00661613
0.00652579
0.0064527
0.00639514
0.00635151
0.0063202
0.00629843
0.00628104
0.00626461
0.00624895
0.0171907
0.0171805
0.0171691
0.017146
0.0170787
0.0169463
0.0167513
0.016264
0.0157846
0.0152815
0.0147614
0.0142303
0.0136941
0.013158
0.0126266
0.0121041
0.0115941
0.0110999
0.0106242
0.0101694
0.00973728
0.00932914
0.00894587
0.00858791
0.00825551
0.00794848
0.00766627
0.00740989
0.0071773
0.00696577
0.00677643
0.00660839
0.00644444
0.00625692
0.00609221
0.00594911
0.0058262
0.00572232
0.0056359
0.00556543
0.00550945
0.00546654
0.0054353
0.00541438
0.00540141
0.00539193
0.00538305
0.00537458
0.0141124
0.0141092
0.0141057
0.0140931
0.0140447
0.013943
0.0137901
0.0135896
0.0131658
0.0127404
0.0123042
0.0118621
0.0114188
0.0109783
0.0105441
0.0101192
0.00970645
0.00930804
0.0089259
0.00856164
0.00821646
0.00789105
0.00758587
0.007301
0.00703644
0.00679184
0.00656662
0.00636175
0.00617532
0.00598465
0.00577225
0.00558079
0.00540992
0.00525873
0.00512657
0.00501242
0.00491513
0.00483372
0.00476688
0.00471334
0.00467189
0.0046413
0.00462042
0.0046081
0.00460232
0.0045993
0.00459656
0.00459394
0.0114774
0.0114797
0.0114821
0.0114778
0.0114448
0.0113686
0.0112508
0.0110943
0.0109023
0.0106789
0.0102918
0.00992848
0.00956686
0.00920995
0.0088602
0.00851985
0.00819062
0.00787404
0.00757124
0.00728318
0.0070105
0.00675342
0.00651202
0.00628614
0.00608668
0.00583004
0.00558968
0.00536622
0.00516026
0.00497194
0.00480098
0.0046473
0.00451064
0.00439024
0.00428559
0.00419585
0.00412008
0.00405746
0.0040069
0.00396736
0.00393781
0.00391723
0.00390466
0.00389914
0.00389895
0.00390089
0.00390286
0.00390474
0.0092599
0.00926601
0.00927285
0.00927468
0.0092537
0.00919809
0.009109
0.00898858
0.00883948
0.00866467
0.00846731
0.00825068
0.00801801
0.00777253
0.00751736
0.00725549
0.00698973
0.00672273
0.00645695
0.00619463
0.00593783
0.0056884
0.00544795
0.00521785
0.00499928
0.00479317
0.00460027
0.00442109
0.00425618
0.00410568
0.00396939
0.00384725
0.00373908
0.00364426
0.0035624
0.0034928
0.00343469
0.00338741
0.00335005
0.00332175
0.00330165
0.00328892
0.00328276
0.00328234
0.00328625
0.00329177
0.00329715
0.00330228
0.00742025
0.00742896
0.00743869
0.00744484
0.00743301
0.00739361
0.00732743
0.0072361
0.00712166
0.00698641
0.00683283
0.00666347
0.00648091
0.00628772
0.00608638
0.00587929
0.00566872
0.00545682
0.00524559
0.00503687
0.00483235
0.00463356
0.00444183
0.00425832
0.00408402
0.00391971
0.00376604
0.00362346
0.00349245
0.00337314
0.00326537
0.00316915
0.00308432
0.0030104
0.00294707
0.00289378
0.00284988
0.00281485
0.00278794
0.00276843
0.00275563
0.00274884
0.0027474
0.00275062
0.00275732
0.00276524
0.00277288
0.00278016
0.00591223
0.00592244
0.00593387
0.00594282
0.00593772
0.00591078
0.00586254
0.00579424
0.0057074
0.00560379
0.00548535
0.00535406
0.00521195
0.00506104
0.00490332
0.00474069
0.00457498
0.00440791
0.00424112
0.0040761
0.00391424
0.0037568
0.00360487
0.00345943
0.0033213
0.00319114
0.00306951
0.00295679
0.00285341
0.00275947
0.00267489
0.00259967
0.0025337
0.0024766
0.00242811
0.0023878
0.00235514
0.00232971
0.00231088
0.00229809
0.00229075
0.00228828
0.00229015
0.0022958
0.00230423
0.00231355
0.00232252
0.00233106
0.00468811
0.00469901
0.0047112
0.00472175
0.00472138
0.00470381
0.00466939
0.00461901
0.00455383
0.0044752
0.00438461
0.0042836
0.00417374
0.00405664
0.00393385
0.0038069
0.00367724
0.00354627
0.0034153
0.00328554
0.00315813
0.00303409
0.00291435
0.00279969
0.00269081
0.00258827
0.00249253
0.00240393
0.00232282
0.00224932
0.00218336
0.00212496
0.00207405
0.00203031
0.00199356
0.00196344
0.00193952
0.00192147
0.00190878
0.00190097
0.00189759
0.00189815
0.0019022
0.0019093
0.00191861
0.00192857
0.00193814
0.00194725
0.00370236
0.00371332
0.00372558
0.00373682
0.00373962
0.00372893
0.00370496
0.00366835
0.00361996
0.00356081
0.00349205
0.00341486
0.00333046
0.00324012
0.00314505
0.00304646
0.00294553
0.00284335
0.00274099
0.00263943
0.0025396
0.00244233
0.00234839
0.00225842
0.00217299
0.0020926
0.0020176
0.0019483
0.00188501
0.00182782
0.00177668
0.00173163
0.00169261
0.00165938
0.0016318
0.00160956
0.00159235
0.00157988
0.00157174
0.00156755
0.00156693
0.00156948
0.00157485
0.00158266
0.00159223
0.00160225
0.00161187
0.00162104
0.00291365
0.00292424
0.00293608
0.00294735
0.00295214
0.00294637
0.00293017
0.00290399
0.00286846
0.00282436
0.00277253
0.00271392
0.00264945
0.0025801
0.00250685
0.00243065
0.00235241
0.00227303
0.00219337
0.0021142
0.0020363
0.00196033
0.00188692
0.00181661
0.00174987
0.0016871
0.00162862
0.00157466
0.00152551
0.00148123
0.0014418
0.00140725
0.00137756
0.00135252
0.00133202
0.00131583
0.00130369
0.00129536
0.00129053
0.00128887
0.00129009
0.00129386
0.00129989
0.00130787
0.00131724
0.00132693
0.00133622
0.00134507
0.00228584
0.00229577
0.00230687
0.00231771
0.00232361
0.00232127
0.00231076
0.00229237
0.00226659
0.00223398
0.0021952
0.00215095
0.00210195
0.00204898
0.00199278
0.00193411
0.00187371
0.00181228
0.0017505
0.00168902
0.00162844
0.00156933
0.00151218
0.00145744
0.0014055
0.00135669
0.00131126
0.00126944
0.00123144
0.00119732
0.00116708
0.00114075
0.0011183
0.00109958
0.00108451
0.0010729
0.00106453
0.00105924
0.00105674
0.00105681
0.00105917
0.00106358
0.0010698
0.00107757
0.00108645
0.00109553
0.00110424
0.00111254
0.00178816
0.00179726
0.00180742
0.00181755
0.00182391
0.00182388
0.00181744
0.00180481
0.00178634
0.00176245
0.00173362
0.00170039
0.00166334
0.00162305
0.00158011
0.00153511
0.00148864
0.00144126
0.00139351
0.00134593
0.00129898
0.00125314
0.00120881
0.00116634
0.00112607
0.00108825
0.00105312
0.00102083
0.000991592
0.000965435
0.000942363
0.000922415
0.000905568
0.000891695
0.000880747
0.000872557
0.000866974
0.000863845
0.000862962
0.000864123
0.000867125
0.000871765
0.000877845
0.000885164
0.00089335
0.000901676
0.000909649
0.000917247
0.00139492
0.00140309
0.00141223
0.00142147
0.00142786
0.00142929
0.00142571
0.00141728
0.00140423
0.00138688
0.0013656
0.0013408
0.0013129
0.00128238
0.00124969
0.0012153
0.00117966
0.00114324
0.00110646
0.00106975
0.00103349
0.000998056
0.000963781
0.000930959
0.000899848
0.000870672
0.000843608
0.000818797
0.000796402
0.000776451
0.000758951
0.000743936
0.00073139
0.000721209
0.000713362
0.00070771
0.00070414
0.000702527
0.000702707
0.000704518
0.000707797
0.000712381
0.000718111
0.000724825
0.00073222
0.000739704
0.00074687
0.000753698
0.00108499
0.00109222
0.0011003
0.00110857
0.00111471
0.00111699
0.00111537
0.00110995
0.00110088
0.00108841
0.00107281
0.00105439
0.00103348
0.00101045
0.000985647
0.000959448
0.000932213
0.000904301
0.000876061
0.000847826
0.000819916
0.000792626
0.000766224
0.000740952
0.000717017
0.000694602
0.00067385
0.000654875
0.000637815
0.000622686
0.000609495
0.000598277
0.000589015
0.000581626
0.000576092
0.0005723
0.000570161
0.000569578
0.00057042
0.000572559
0.000575865
0.000580207
0.000585459
0.000591489
0.000598054
0.000604674
0.000611011
0.000617048
0.000841225
0.000847529
0.000854574
0.000861858
0.000867555
0.000870267
0.000869939
0.000866626
0.000860449
0.000851577
0.000840219
0.000826612
0.000811012
0.000793697
0.000774949
0.000755057
0.000734308
0.000712989
0.000691376
0.000669738
0.000648331
0.000627392
0.000607138
0.000587762
0.000569432
0.000552295
0.000536466
0.000522036
0.00050912
0.000497723
0.000487854
0.000479543
0.000472776
0.000467485
0.000463663
0.000461212
0.000460071
0.00046016
0.000461376
0.000463618
0.000466785
0.000470772
0.000475478
0.000480798
0.000486538
0.00049231
0.000497834
0.000503097
0.000649799
0.000655222
0.000661285
0.000667609
0.000672765
0.000675612
0.00067609
0.000674232
0.000670122
0.000663883
0.000655674
0.000645674
0.000634082
0.000621113
0.000606988
0.000591935
0.000576181
0.000559953
0.000543473
0.000526954
0.000510602
0.000494607
0.000479141
0.00046436
0.000450399
0.000437373
0.000425373
0.000414474
0.000404768
0.000396251
0.000388933
0.00038284
0.000377959
0.000374233
0.000371662
0.000370166
0.0003697
0.000370201
0.000371588
0.000373784
0.000376708
0.000380278
0.000384414
0.000389034
0.000393982
0.000398948
0.0004037
0.000408229
0.00049966
0.000504269
0.000509419
0.000514837
0.000519408
0.000522192
0.000523133
0.000522246
0.000519591
0.000515258
0.000509366
0.000502054
0.000493473
0.000483794
0.000473189
0.000461837
0.000449919
0.000437614
0.0004251
0.000412545
0.000400114
0.000387959
0.000376216
0.00036501
0.000354446
0.000344616
0.00033559
0.000327426
0.0003202
0.000313899
0.000308533
0.000304125
0.00030066
0.000298092
0.000296428
0.000295597
0.000295571
0.000296298
0.000297719
0.000299771
0.000302394
0.000305523
0.000309095
0.000313045
0.000317253
0.000321471
0.000325507
0.000329353
0.00038202
0.000385885
0.000390205
0.000394785
0.000398765
0.000401363
0.000402526
0.000402261
0.000400609
0.000397637
0.000393436
0.000388112
0.000381784
0.000374586
0.000366651
0.000358123
0.000349143
0.000339855
0.000330398
0.000320907
0.000311513
0.000302335
0.000293483
0.000285052
0.000277125
0.000269774
0.000263052
0.000257002
0.000251687
0.000247086
0.000243209
0.000240074
0.000237666
0.000235949
0.00023493
0.000234552
0.000234795
0.000235621
0.000236983
0.000238835
0.000241129
0.000243817
0.00024685
0.000250177
0.000253706
0.000257241
0.000260625
0.000263849
0.000289916
0.000293113
0.000296686
0.000300507
0.000303914
0.000306252
0.000307474
0.000307582
0.000306603
0.000304589
0.000301609
0.000297747
0.000293095
0.000287759
0.000281844
0.000275464
0.00026873
0.000261756
0.000254653
0.000247527
0.000240481
0.000233609
0.000226996
0.000220716
0.000214833
0.000209401
0.000204459
0.000200039
0.000196191
0.000192889
0.000190142
0.000187965
0.000186342
0.000185241
0.000184675
0.000184593
0.000184986
0.000185822
0.000187068
0.000188689
0.00019065
0.000192914
0.000195444
0.000198202
0.000201117
0.000204038
0.000206835
0.000209499
0.000217848
0.000220454
0.000223364
0.000226504
0.000229373
0.000231415
0.000232589
0.000232893
0.000232348
0.000230995
0.000228888
0.000226092
0.00022268
0.000218737
0.000214346
0.000209596
0.000204576
0.000199375
0.000194081
0.000188777
0.000183545
0.000178455
0.000173574
0.000168958
0.000164655
0.000160704
0.000157134
0.000153966
0.000151242
0.000148929
0.000147035
0.000145573
0.000144527
0.000143869
0.000143613
0.000143715
0.000144173
0.000144963
0.000146059
0.000147439
0.000149076
0.000150944
0.000153014
0.000155258
0.000157624
0.000159999
0.000162273
0.00016444
0.000161491
0.000163577
0.000165907
0.000168444
0.000170816
0.000172548
0.000173604
0.000173984
0.000173704
0.000172796
0.000171302
0.000169277
0.000166779
0.000163874
0.000160628
0.000157114
0.000153401
0.000149558
0.000145654
0.000141754
0.000137919
0.000134206
0.000130662
0.00012733
0.000124243
0.000121433
0.000118915
0.000116706
0.000114835
0.000113271
0.000112018
0.000111086
0.000110459
0.000110113
0.000110062
0.000110269
0.000110736
0.000111444
0.000112376
0.000113517
0.000114849
0.000116351
0.000118007
0.000119793
0.000121674
0.000123567
0.000125379
0.000127107
0.000117444
0.00011908
0.000120907
0.000122917
0.000124835
0.000126257
0.000127155
0.000127529
0.000127392
0.000126772
0.000125703
0.000124231
0.000122401
0.000120269
0.000117885
0.000115309
0.000112592
0.00010979
0.000106955
0.000104136
0.00010138
9.87267e-05
9.62123e-05
9.38671e-05
9.17144e-05
8.9775e-05
8.80596e-05
8.65766e-05
8.5351e-05
8.43471e-05
8.35701e-05
8.30267e-05
8.27002e-05
8.25691e-05
8.26488e-05
8.29042e-05
8.3343e-05
8.39499e-05
8.47149e-05
8.56277e-05
8.6677e-05
8.78504e-05
8.9135e-05
9.05167e-05
9.19716e-05
9.34411e-05
9.48496e-05
9.6193e-05
8.3048e-05
8.43014e-05
8.57e-05
8.72526e-05
8.8755e-05
8.98741e-05
9.05884e-05
9.08991e-05
9.08198e-05
9.03744e-05
8.95937e-05
8.8514e-05
8.71737e-05
8.56178e-05
8.38866e-05
8.20248e-05
8.00736e-05
7.80744e-05
7.60651e-05
7.40812e-05
7.21569e-05
7.03202e-05
6.85956e-05
6.70038e-05
6.55604e-05
6.42794e-05
6.31665e-05
6.22264e-05
6.14788e-05
6.08882e-05
6.04585e-05
6.01945e-05
6.00787e-05
6.00914e-05
6.02475e-05
6.05147e-05
6.09035e-05
6.14014e-05
6.20033e-05
6.2704e-05
6.34973e-05
6.43762e-05
6.53333e-05
6.63597e-05
6.74422e-05
6.85424e-05
6.95984e-05
7.06066e-05
5.62348e-05
5.71734e-05
5.82195e-05
5.93809e-05
6.04953e-05
6.1314e-05
6.18233e-05
6.2028e-05
6.1943e-05
6.15902e-05
6.09975e-05
6.01961e-05
5.9218e-05
5.80983e-05
5.68693e-05
5.55647e-05
5.42132e-05
5.28438e-05
5.14824e-05
5.01516e-05
4.88733e-05
4.76648e-05
4.65414e-05
4.55164e-05
4.45999e-05
4.3802e-05
4.31266e-05
4.25768e-05
4.2169e-05
4.18708e-05
4.16852e-05
4.16144e-05
4.16408e-05
4.17449e-05
4.19404e-05
4.2196e-05
4.25242e-05
4.29136e-05
4.33629e-05
4.38706e-05
4.44348e-05
4.50532e-05
4.57224e-05
4.64385e-05
4.71963e-05
4.79745e-05
4.87237e-05
4.94402e-05
3.54357e-05
3.6139e-05
3.69208e-05
3.77552e-05
3.848e-05
3.8978e-05
3.92481e-05
3.93005e-05
3.91525e-05
3.88269e-05
3.835e-05
3.77489e-05
3.70498e-05
3.62822e-05
3.54658e-05
3.46245e-05
3.37745e-05
3.29304e-05
3.21037e-05
3.13034e-05
3.05381e-05
2.98144e-05
2.91396e-05
2.85221e-05
2.79702e-05
2.74942e-05
2.71011e-05
2.67975e-05
2.65987e-05
2.64816e-05
2.64474e-05
2.64964e-05
2.661e-05
2.67672e-05
2.69787e-05
2.72115e-05
2.74782e-05
2.77674e-05
2.80796e-05
2.84162e-05
2.87785e-05
2.9168e-05
2.95855e-05
3.00308e-05
3.05048e-05
3.10001e-05
3.14806e-05
3.19426e-05
1.96125e-05
2.021e-05
2.08666e-05
2.14455e-05
2.16924e-05
2.17709e-05
2.17019e-05
2.15055e-05
2.12064e-05
2.08339e-05
2.04147e-05
1.99755e-05
1.95386e-05
1.91215e-05
1.87334e-05
1.83778e-05
1.80502e-05
1.77424e-05
1.74415e-05
1.71353e-05
1.68129e-05
1.64684e-05
1.61019e-05
1.57206e-05
1.53385e-05
1.49752e-05
1.46529e-05
1.43932e-05
1.42177e-05
1.41298e-05
1.41286e-05
1.42113e-05
1.43571e-05
1.45383e-05
1.47565e-05
1.49705e-05
1.51909e-05
1.54007e-05
1.56005e-05
1.57931e-05
1.59822e-05
1.61727e-05
1.63693e-05
1.65757e-05
1.67958e-05
1.7033e-05
1.72705e-05
1.75046e-05
5.63463e-06
5.73491e-06
5.847e-06
5.96651e-06
6.06922e-06
6.14172e-06
6.18494e-06
6.20084e-06
6.19188e-06
6.16071e-06
6.11002e-06
6.04247e-06
5.96042e-06
5.86657e-06
5.76294e-06
5.65195e-06
5.5356e-06
5.41603e-06
5.29528e-06
5.17528e-06
5.05804e-06
4.94531e-06
4.8387e-06
4.73975e-06
4.64975e-06
4.57e-06
4.50132e-06
4.44455e-06
4.40182e-06
4.37093e-06
4.35282e-06
4.34851e-06
4.35701e-06
4.37673e-06
4.40959e-06
4.45182e-06
4.50485e-06
4.56657e-06
4.63604e-06
4.7123e-06
4.79426e-06
4.88092e-06
4.9713e-06
5.06439e-06
5.15829e-06
5.25019e-06
5.33803e-06
5.42171e-06
5.10633e-05
5.11042e-05
5.11439e-05
5.11828e-05
5.12208e-05
5.12581e-05
5.1295e-05
5.13314e-05
5.13676e-05
5.14037e-05
5.14408e-05
5.14813e-05
5.15266e-05
5.1287e-05
4.72357e-05
4.52141e-05
4.56106e-05
4.59953e-05
4.63572e-05
4.66877e-05
4.69816e-05
4.72367e-05
4.74536e-05
4.76347e-05
4.77838e-05
4.79049e-05
4.80023e-05
4.80799e-05
4.81415e-05
4.819e-05
0.00015496
0.000155343
0.000155717
0.000156083
0.000156442
0.000156794
0.000157141
0.000157484
0.000157824
0.000158163
0.000158527
0.000158973
0.000159497
0.000159009
0.000153809
0.000152069
0.000154028
0.000156568
0.000159495
0.000162548
0.000165466
0.000168051
0.000170204
0.00017191
0.000173216
0.000174189
0.000174904
0.000175424
0.000175801
0.000176075
0.000263728
0.000265005
0.000266247
0.000267457
0.000268639
0.000269796
0.000270934
0.000272055
0.000273164
0.000274265
0.000275425
0.000276785
0.000278368
0.000278399
0.000272388
0.000271785
0.000276081
0.000281188
0.000286754
0.000292347
0.00029757
0.000302147
0.000305954
0.000308995
0.000311353
0.000313144
0.000314486
0.000315485
0.000316226
0.000316775
0.000380578
0.000383304
0.000385948
0.000388519
0.000391027
0.00039348
0.000395888
0.000398258
0.000400601
0.000402926
0.000405347
0.000408129
0.000411351
0.000412744
0.000407346
0.000409038
0.000416587
0.000425101
0.00043405
0.000442831
0.000450918
0.000457967
0.00046384
0.000468565
0.000472268
0.000475119
0.000477287
0.000478922
0.000480152
0.000481074
0.000508982
0.00051372
0.000518311
0.000522771
0.000527116
0.000531364
0.00053553
0.00053963
0.00054368
0.000547695
0.000551857
0.000556585
0.000562048
0.000565651
0.000562204
0.000567317
0.000579063
0.000591863
0.00060499
0.000617663
0.000629232
0.000639289
0.000647689
0.000654487
0.00065986
0.000664035
0.000667241
0.000669684
0.000671537
0.000672938
0.000652759
0.000660094
0.000667195
0.000674089
0.000680803
0.000687362
0.000693793
0.00070012
0.000706368
0.00071256
0.000718958
0.000726183
0.000734522
0.000741194
0.000740968
0.000750632
0.000767576
0.000785605
0.000803776
0.000821122
0.000836863
0.000850531
0.000861972
0.000871276
0.000878676
0.000884468
0.000888947
0.000892382
0.000895003
0.000896996
0.000816187
0.000826733
0.000836937
0.00084684
0.00085648
0.000865896
0.000875125
0.000884203
0.000893165
0.000902046
0.000911206
0.000921514
0.000933405
0.000944023
0.000948254
0.000963633
0.000986856
0.00101115
0.00103532
0.00105821
0.0010789
0.00109685
0.00111191
0.00112421
0.00113403
0.00114176
0.00114777
0.0011524
0.00115595
0.00115866
0.00100412
0.00101854
0.00103248
0.001046
0.00105916
0.00107202
0.00108461
0.001097
0.00110923
0.00112135
0.00113383
0.00114785
0.00116402
0.0011795
0.00118942
0.00121174
0.00124243
0.00127412
0.00130537
0.00133478
0.00136129
0.00138429
0.00140362
0.00141944
0.00143214
0.00144216
0.00144998
0.00145603
0.00146068
0.00146424
0.00122216
0.00124114
0.0012595
0.0012773
0.00129463
0.00131155
0.00132813
0.00134443
0.00136052
0.00137647
0.00139288
0.0014113
0.00143253
0.00145384
0.00147071
0.00150129
0.00154075
0.00158113
0.00162065
0.00165769
0.001691
0.0017199
0.00174421
0.00176417
0.00178023
0.00179295
0.00180291
0.00181063
0.00181657
0.00182113
0.00147675
0.00150107
0.00152459
0.0015474
0.0015696
0.00159126
0.0016125
0.00163337
0.00165398
0.00167439
0.0016954
0.00171895
0.00174611
0.00177427
0.00179942
0.00183971
0.00188941
0.00193988
0.00198904
0.00203493
0.00207615
0.00211191
0.00214204
0.00216682
0.0021868
0.00220266
0.0022151
0.00222476
0.00223222
0.00210551
0.00177547
0.00180597
0.00183547
0.00186407
0.00189189
0.00191906
0.00194568
0.00197185
0.00199768
0.00202327
0.00204961
0.00207911
0.00211312
0.00214927
0.00218411
0.0022357
0.00229726
0.00235945
0.00241975
0.00247591
0.00252628
0.00256999
0.00260685
0.00263721
0.00266173
0.00268123
0.00269655
0.00270848
0.00262186
0.00242991
0.00212718
0.00216479
0.00220115
0.00223641
0.00227072
0.00230421
0.00233702
0.00236928
0.00240112
0.00243267
0.00246512
0.00250147
0.00254337
0.00258873
0.0026348
0.00269945
0.00277473
0.00285043
0.00292359
0.00299158
0.00305252
0.0031054
0.00315003
0.00318683
0.0032166
0.0032403
0.00325895
0.00325612
0.00297531
0.00286757
0.00254231
0.00258805
0.00263227
0.00267515
0.00271687
0.00275759
0.00279749
0.00283672
0.00287543
0.00291379
0.00295325
0.00299743
0.00304837
0.00310428
0.00316326
0.00324295
0.00333401
0.00342525
0.00351321
0.00359482