/*--------------------------------*- C++ -*----------------------------------*\
| =========                 |                                                 |
| \\      /  F ield         | OpenFOAM: The Open Source CFD Toolbox           |
|  \\    /   O peration     | Version:  2212                                  |
|   \\  /    A nd           | Website:  www.openfoam.com                      |
|    \\/     M anipulation  |                                                 |
\*---------------------------------------------------------------------------*/
FoamFile
{
    version     2.0;
    format      ascii;
    arch        "LSB;label=32;scalar=64";
    class       volScalarField;
    location    "10000";
    object      g3_;
}
// * * * * * * * * * * * * * * * * * * * * * * * * * * * * * * * * * * * * * //

dimensions      [0 0 0 0 0 0 0];

internalField   nonuniform List<scalar> 
18080
(
-1.87793e-05
-1.87793e-05
-1.87936e-05
-1.88133e-05
-1.88229e-05
-1.88279e-05
-1.88306e-05
-1.8832e-05
-1.8832e-05
-1.88308e-05
-1.88283e-05
-1.88246e-05
-1.88238e-05
-1.88285e-05
-1.88254e-05
-1.8824e-05
-1.8824e-05
-1.88256e-05
-1.88293e-05
-1.88329e-05
-1.88352e-05
-1.88366e-05
-1.88374e-05
-1.88378e-05
-1.88379e-05
-1.88378e-05
-1.88376e-05
-1.88374e-05
-1.88373e-05
-1.88372e-05
-1.88371e-05
-1.88371e-05
-1.88371e-05
-1.88371e-05
-1.88371e-05
-1.88371e-05
-1.88371e-05
-1.88371e-05
-1.8837e-05
-1.8837e-05
-1.88369e-05
-1.88367e-05
-1.88366e-05
-1.88365e-05
-1.88363e-05
-1.88362e-05
-1.8836e-05
-1.88357e-05
-1.87793e-05
-1.87793e-05
-1.87936e-05
-1.8813e-05
-1.88225e-05
-1.88276e-05
-1.88303e-05
-1.88313e-05
-1.88303e-05
-1.88278e-05
-1.88237e-05
-1.88221e-05
-1.88266e-05
-1.88218e-05
-1.88191e-05
-1.88183e-05
-1.88208e-05
-1.88271e-05
-1.88316e-05
-1.88345e-05
-1.88364e-05
-1.88375e-05
-1.8838e-05
-1.88383e-05
-1.88383e-05
-1.88382e-05
-1.8838e-05
-1.88378e-05
-1.88376e-05
-1.88374e-05
-1.88372e-05
-1.88371e-05
-1.8837e-05
-1.8837e-05
-1.8837e-05
-1.8837e-05
-1.8837e-05
-1.8837e-05
-1.88369e-05
-1.88369e-05
-1.88369e-05
-1.88368e-05
-1.88368e-05
-1.88367e-05
-1.88366e-05
-1.88365e-05
-1.88364e-05
-1.88363e-05
-1.87793e-05
-1.87793e-05
-1.87928e-05
-1.8813e-05
-1.8823e-05
-1.88285e-05
-1.88318e-05
-1.88339e-05
-1.88344e-05
-1.88331e-05
-1.883e-05
-1.8825e-05
-1.88243e-05
-1.88265e-05
-1.88207e-05
-1.88189e-05
-1.88193e-05
-1.88243e-05
-1.88297e-05
-1.88334e-05
-1.88357e-05
-1.88371e-05
-1.88379e-05
-1.88383e-05
-1.88384e-05
-1.88383e-05
-1.88381e-05
-1.88379e-05
-1.88377e-05
-1.88375e-05
-1.88373e-05
-1.88372e-05
-1.88371e-05
-1.8837e-05
-1.8837e-05
-1.8837e-05
-1.8837e-05
-1.88369e-05
-1.88369e-05
-1.88369e-05
-1.88368e-05
-1.88368e-05
-1.88367e-05
-1.88366e-05
-1.88365e-05
-1.88364e-05
-1.88362e-05
-1.8836e-05
-1.87793e-05
-1.87793e-05
-1.8793e-05
-1.88133e-05
-1.88234e-05
0.00256075
0.00168896
-1.88347e-05
-1.88364e-05
-1.88369e-05
-1.88355e-05
-1.88321e-05
-1.88269e-05
-1.88257e-05
-1.88276e-05
-1.88218e-05
-1.88199e-05
-1.8821e-05
-1.88259e-05
-1.8831e-05
-1.88344e-05
-1.88366e-05
-1.88378e-05
-1.88384e-05
-1.88387e-05
-1.88387e-05
-1.88385e-05
-1.88383e-05
-1.88381e-05
-1.88379e-05
-1.88377e-05
-1.88375e-05
-1.88373e-05
-1.88372e-05
-1.88371e-05
-1.8837e-05
-1.8837e-05
-1.8837e-05
-1.88369e-05
-1.88369e-05
-1.88368e-05
-1.88368e-05
-1.88367e-05
-1.88366e-05
-1.88365e-05
-1.88363e-05
-1.88361e-05
-1.88358e-05
-1.87793e-05
-1.87793e-05
-1.87928e-05
-1.88132e-05
-1.88234e-05
0.00314649
0.00328995
0.00181893
-1.88366e-05
-1.88381e-05
-1.88384e-05
-1.88368e-05
-1.88331e-05
-1.88277e-05
-1.88271e-05
-1.88284e-05
-1.88229e-05
-1.8821e-05
-1.88227e-05
-1.88274e-05
-1.88323e-05
-1.88355e-05
-1.88374e-05
-1.88385e-05
-1.8839e-05
-1.88391e-05
-1.8839e-05
-1.88388e-05
-1.88386e-05
-1.88383e-05
-1.88381e-05
-1.88378e-05
-1.88376e-05
-1.88375e-05
-1.88373e-05
-1.88372e-05
-1.88371e-05
-1.8837e-05
-1.88369e-05
-1.88369e-05
-1.88368e-05
-1.88367e-05
-1.88366e-05
-1.88365e-05
-1.88363e-05
-1.88361e-05
-1.88358e-05
-1.88355e-05
-1.87793e-05
-1.87793e-05
-1.87929e-05
-1.88132e-05
0.000208904
0.00341503
0.00349865
0.00333476
-1.88364e-05
-1.88383e-05
-1.88395e-05
-1.88394e-05
-1.88374e-05
-1.88335e-05
-1.88279e-05
-1.88285e-05
-1.88289e-05
-1.88238e-05
-1.88224e-05
-1.88243e-05
-1.88289e-05
-1.88335e-05
-1.88365e-05
-1.88382e-05
-1.88391e-05
-1.88395e-05
-1.88396e-05
-1.88394e-05
-1.88391e-05
-1.88388e-05
-1.88385e-05
-1.88383e-05
-1.8838e-05
-1.88378e-05
-1.88376e-05
-1.88375e-05
-1.88373e-05
-1.88372e-05
-1.88371e-05
-1.8837e-05
-1.88369e-05
-1.88367e-05
-1.88366e-05
-1.88364e-05
-1.88362e-05
-1.88359e-05
-1.88355e-05
-1.88351e-05
-1.87793e-05
-1.87793e-05
-1.87931e-05
-1.88132e-05
0.000345674
0.00344327
0.00347615
0.00351556
0.00288996
-1.88379e-05
-1.88397e-05
-1.88406e-05
-1.88401e-05
-1.88377e-05
-1.88335e-05
-1.88277e-05
-1.88299e-05
-1.88291e-05
-1.88247e-05
-1.88242e-05
-1.8826e-05
-1.88304e-05
-1.88347e-05
-1.88374e-05
-1.8839e-05
-1.88398e-05
-1.884e-05
-1.884e-05
-1.88398e-05
-1.88394e-05
-1.88391e-05
-1.88388e-05
-1.88385e-05
-1.88383e-05
-1.8838e-05
-1.88378e-05
-1.88376e-05
-1.88375e-05
-1.88373e-05
-1.88372e-05
-1.8837e-05
-1.88368e-05
-1.88366e-05
-1.88364e-05
-1.8836e-05
-1.88357e-05
-1.88352e-05
-1.88347e-05
-1.87793e-05
-1.87793e-05
-1.87936e-05
-1.88133e-05
0.000432029
0.00343833
0.00346394
0.00348895
0.00353652
0.00204786
-1.88393e-05
-1.88409e-05
-1.88414e-05
-1.88404e-05
-1.88376e-05
-1.88331e-05
-1.88275e-05
-1.88311e-05
-1.88292e-05
-1.88255e-05
-1.88258e-05
-1.88275e-05
-1.88318e-05
-1.88358e-05
-1.88383e-05
-1.88397e-05
-1.88404e-05
-1.88405e-05
-1.88404e-05
-1.88401e-05
-1.88398e-05
-1.88394e-05
-1.88391e-05
-1.88388e-05
-1.88385e-05
-1.88382e-05
-1.8838e-05
-1.88378e-05
-1.88376e-05
-1.88374e-05
-1.88372e-05
-1.8837e-05
-1.88367e-05
-1.88364e-05
-1.88359e-05
-1.88354e-05
-1.88348e-05
-1.88343e-05
-1.87793e-05
-1.87793e-05
-1.87943e-05
-1.88135e-05
0.000520511
0.00343578
0.00345721
0.00347339
0.00350448
0.00314181
-1.88389e-05
-1.88407e-05
-1.88419e-05
-1.8842e-05
-1.88405e-05
-1.88373e-05
-1.88327e-05
-1.88289e-05
-1.88322e-05
-1.88293e-05
-1.88267e-05
-1.88274e-05
-1.8829e-05
-1.88331e-05
-1.88369e-05
-1.88392e-05
-1.88404e-05
-1.88409e-05
-1.8841e-05
-1.88408e-05
-1.88405e-05
-1.88401e-05
-1.88397e-05
-1.88393e-05
-1.8839e-05
-1.88387e-05
-1.88384e-05
-1.88381e-05
-1.88379e-05
-1.88376e-05
-1.88374e-05
-1.88371e-05
-1.88368e-05
-1.88364e-05
-1.88358e-05
-1.88352e-05
-1.88344e-05
-1.88338e-05
-1.87793e-05
-1.87793e-05
-1.87953e-05
-1.88138e-05
0.000653262
0.00343446
0.00345332
0.00346388
0.00348396
0.0035267
0.00215478
-1.88402e-05
-1.88419e-05
-1.88428e-05
-1.88424e-05
-1.88405e-05
-1.8837e-05
-1.88323e-05
-1.88302e-05
-1.88332e-05
-1.88294e-05
-1.88282e-05
-1.88289e-05
-1.88303e-05
-1.88343e-05
-1.88378e-05
-1.88399e-05
-1.8841e-05
-1.88414e-05
-1.88415e-05
-1.88412e-05
-1.88408e-05
-1.88404e-05
-1.884e-05
-1.88396e-05
-1.88392e-05
-1.88388e-05
-1.88385e-05
-1.88382e-05
-1.88379e-05
-1.88376e-05
-1.88372e-05
-1.88368e-05
-1.88363e-05
-1.88357e-05
-1.88349e-05
-1.88339e-05
-1.88332e-05
-1.87793e-05
-1.87793e-05
-1.87969e-05
-1.88143e-05
0.000857164
0.00343382
0.00345086
0.00345769
0.00347015
0.00349926
0.00314059
-1.88396e-05
-1.88414e-05
-1.88429e-05
-1.88434e-05
-1.88426e-05
-1.88404e-05
-1.88367e-05
-1.8832e-05
-1.88312e-05
-1.8834e-05
-1.88297e-05
-1.88297e-05
-1.88303e-05
-1.88316e-05
-1.88352e-05
-1.88385e-05
-1.88405e-05
-1.88415e-05
-1.88419e-05
-1.88419e-05
-1.88416e-05
-1.88412e-05
-1.88407e-05
-1.88402e-05
-1.88397e-05
-1.88393e-05
-1.88389e-05
-1.88385e-05
-1.88382e-05
-1.88378e-05
-1.88374e-05
-1.88369e-05
-1.88363e-05
-1.88355e-05
-1.88346e-05
-1.88334e-05
-1.88325e-05
-1.87793e-05
-1.87793e-05
-1.87989e-05
-1.8815e-05
0.00115297
0.00343347
0.00344908
0.00345336
0.00346041
0.00347957
0.00351945
0.00217006
-1.88408e-05
-1.88426e-05
-1.88437e-05
-1.88439e-05
-1.88427e-05
-1.88403e-05
-1.88366e-05
-1.88318e-05
-1.88321e-05
-1.88347e-05
-1.88302e-05
-1.8831e-05
-1.88317e-05
-1.88327e-05
-1.88359e-05
-1.8839e-05
-1.8841e-05
-1.8842e-05
-1.88423e-05
-1.88422e-05
-1.88419e-05
-1.88414e-05
-1.88409e-05
-1.88403e-05
-1.88398e-05
-1.88394e-05
-1.88389e-05
-1.88384e-05
-1.8838e-05
-1.88375e-05
-1.88369e-05
-1.88362e-05
-1.88353e-05
-1.88342e-05
-1.88328e-05
-1.88318e-05
-1.87793e-05
-1.87816e-05
-1.88013e-05
-1.88158e-05
0.00155276
0.00343334
0.00344766
0.00345004
0.00345328
0.00346515
0.00349253
0.00315863
-1.88401e-05
-1.8842e-05
-1.88436e-05
-1.88444e-05
-1.88443e-05
-1.88429e-05
-1.88402e-05
-1.88365e-05
-1.88318e-05
-1.88328e-05
-1.88352e-05
-1.88309e-05
-1.88323e-05
-1.8833e-05
-1.88337e-05
-1.88363e-05
-1.88395e-05
-1.88414e-05
-1.88423e-05
-1.88426e-05
-1.88425e-05
-1.88421e-05
-1.88415e-05
-1.8841e-05
-1.88404e-05
-1.88398e-05
-1.88393e-05
-1.88387e-05
-1.88382e-05
-1.88376e-05
-1.88369e-05
-1.88361e-05
-1.88351e-05
-1.88337e-05
-1.88321e-05
-1.8831e-05
-1.87793e-05
-1.8786e-05
-1.8804e-05
-1.88168e-05
0.00205879
0.00343316
0.00344651
0.00344761
0.00344806
0.00345467
0.00347292
0.00350939
0.00229378
-1.88412e-05
-1.8843e-05
-1.88444e-05
-1.8845e-05
-1.88446e-05
-1.8843e-05
-1.88403e-05
-1.88365e-05
-1.88319e-05
-1.88333e-05
-1.88357e-05
-1.8832e-05
-1.88333e-05
-1.88342e-05
-1.88345e-05
-1.88366e-05
-1.88398e-05
-1.88416e-05
-1.88426e-05
-1.88428e-05
-1.88426e-05
-1.88421e-05
-1.88416e-05
-1.88409e-05
-1.88403e-05
-1.88396e-05
-1.8839e-05
-1.88384e-05
-1.88377e-05
-1.88369e-05
-1.88359e-05
-1.88347e-05
-1.88332e-05
-1.88313e-05
-1.88299e-05
-1.87793e-05
-1.87905e-05
-1.88067e-05
-1.88179e-05
0.00225697
0.00343272
0.00344532
0.00344561
0.00344426
0.00344725
0.00345902
0.00348471
0.00322928
-1.88405e-05
-1.88423e-05
-1.88439e-05
-1.88451e-05
-1.88455e-05
-1.88448e-05
-1.88431e-05
-1.88403e-05
-1.88366e-05
-1.88322e-05
-1.88338e-05
-1.88361e-05
-1.8833e-05
-1.88343e-05
-1.88352e-05
-1.88353e-05
-1.88368e-05
-1.884e-05
-1.88418e-05
-1.88427e-05
-1.88429e-05
-1.88426e-05
-1.88421e-05
-1.88414e-05
-1.88407e-05
-1.884e-05
-1.88393e-05
-1.88385e-05
-1.88377e-05
-1.88368e-05
-1.88357e-05
-1.88342e-05
-1.88324e-05
-1.88303e-05
-1.88286e-05
-1.87821e-05
-1.87955e-05
-1.88093e-05
-1.88191e-05
0.00241804
0.00343183
0.00344406
0.00344402
0.00344163
0.00344237
0.00344983
0.00346824
0.00350215
0.00234176
-1.88415e-05
-1.88433e-05
-1.88448e-05
-1.88458e-05
-1.88458e-05
-1.8845e-05
-1.88431e-05
-1.88403e-05
-1.88367e-05
-1.88324e-05
-1.88341e-05
-1.88364e-05
-1.88338e-05
-1.88351e-05
-1.88361e-05
-1.88359e-05
-1.88369e-05
-1.88401e-05
-1.88419e-05
-1.88427e-05
-1.88428e-05
-1.88425e-05
-1.88419e-05
-1.88411e-05
-1.88404e-05
-1.88395e-05
-1.88387e-05
-1.88378e-05
-1.88367e-05
-1.88353e-05
-1.88336e-05
-1.88313e-05
-1.88289e-05
-1.88268e-05
-1.87872e-05
-1.87996e-05
-1.88115e-05
-1.88201e-05
0.00258117
0.00343018
0.00344257
0.00344263
0.00343999
0.00343958
0.00344461
0.0034585
0.00348487
0.00303898
-1.88409e-05
-1.88426e-05
-1.88443e-05
-1.88456e-05
-1.88463e-05
-1.88461e-05
-1.8845e-05
-1.8843e-05
-1.88402e-05
-1.88363e-05
-1.88325e-05
-1.88351e-05
-1.88357e-05
-1.88343e-05
-1.88361e-05
-1.88367e-05
-1.88366e-05
-1.88379e-05
-1.88407e-05
-1.88421e-05
-1.88427e-05
-1.88427e-05
-1.88422e-05
-1.88415e-05
-1.88407e-05
-1.88398e-05
-1.88388e-05
-1.88378e-05
-1.88365e-05
-1.88349e-05
-1.88327e-05
-1.88298e-05
-1.8827e-05
-1.88243e-05
-1.87906e-05
-1.88025e-05
-1.88132e-05
-1.8821e-05
0.00273076
0.00342757
0.00344066
0.00344139
0.00343912
0.00343859
0.00344277
0.00345439
0.0034765
0.00343206
0.00154841
-1.88421e-05
-1.88438e-05
-1.88453e-05
-1.88463e-05
-1.88466e-05
-1.8846e-05
-1.88442e-05
-1.88417e-05
-1.88385e-05
-1.88345e-05
-1.88337e-05
-1.88362e-05
-1.88348e-05
-1.88358e-05
-1.88368e-05
-1.88367e-05
-1.88371e-05
-1.88394e-05
-1.88412e-05
-1.88423e-05
-1.88426e-05
-1.88423e-05
-1.88417e-05
-1.88409e-05
-1.884e-05
-1.88389e-05
-1.88377e-05
-1.88361e-05
-1.88341e-05
-1.88313e-05
-1.88277e-05
-1.88241e-05
-1.88205e-05
-1.87926e-05
-1.88042e-05
-1.88143e-05
-1.88216e-05
0.00285973
0.00342384
0.0034383
0.0034403
0.00343908
0.00343947
0.00344404
0.00345536
0.00347564
0.00350843
0.00213316
-1.88418e-05
-1.88434e-05
-1.88449e-05
-1.88462e-05
-1.88467e-05
-1.88465e-05
-1.88456e-05
-1.8844e-05
-1.88417e-05
-1.8839e-05
-1.88359e-05
-1.88331e-05
-1.8835e-05
-1.88372e-05
-1.88356e-05
-1.88373e-05
-1.88377e-05
-1.88374e-05
-1.88379e-05
-1.88404e-05
-1.88414e-05
-1.88418e-05
-1.88416e-05
-1.8841e-05
-1.884e-05
-1.88388e-05
-1.88373e-05
-1.88353e-05
-1.88326e-05
-1.88286e-05
-1.88239e-05
-1.88187e-05
-1.88134e-05
-1.87932e-05
-1.88047e-05
-1.88147e-05
-1.88221e-05
0.00297035
0.00341899
0.00343559
0.00343948
0.00344022
0.00344244
0.0034486
0.00346097
0.00348128
0.0034679
0.00214763
-1.88416e-05
-1.88433e-05
-1.88449e-05
-1.88461e-05
-1.88467e-05
-1.88468e-05
-1.88465e-05
-1.8846e-05
-1.88452e-05
-1.88442e-05
-1.88429e-05
-1.88413e-05
-1.88396e-05
-1.88365e-05
-1.88337e-05
-1.88356e-05
-1.88379e-05
-1.88371e-05
-1.88383e-05
-1.88381e-05
-1.88372e-05
-1.88369e-05
-1.88382e-05
-1.88388e-05
-1.88386e-05
-1.88375e-05
-1.88358e-05
-1.88332e-05
-1.88293e-05
-1.88231e-05
-1.88165e-05
-1.88117e-05
-1.88084e-05
-1.87926e-05
-1.8804e-05
-1.88146e-05
-1.88223e-05
0.0030723
0.00341324
0.00343266
0.00343934
0.00344291
0.00344807
0.00345693
0.00347141
0.00349283
0.00320251
0.00165056
-1.88419e-05
-1.88434e-05
-1.88448e-05
-1.8846e-05
-1.88467e-05
-1.88472e-05
-1.88475e-05
-1.88477e-05
-1.88477e-05
-1.88478e-05
-1.88478e-05
-1.88477e-05
-1.88477e-05
-1.88468e-05
-1.88456e-05
-1.88441e-05
-1.8841e-05
-1.88362e-05
-1.88346e-05
-1.88373e-05
-1.88378e-05
-1.88367e-05
-1.88363e-05
-1.88358e-05
-1.88333e-05
-1.88316e-05
-1.8831e-05
-1.88281e-05
-1.88226e-05
-1.88173e-05
-1.88144e-05
-1.88168e-05
-1.88204e-05
-1.87908e-05
-1.88022e-05
-1.8814e-05
-1.88225e-05
0.00317923
0.00340681
0.00343002
0.00344046
0.003448
0.00345701
0.00346922
0.00348631
0.00351099
0.00253405
-1.88409e-05
-1.88422e-05
-1.88435e-05
-1.88446e-05
-1.88456e-05
-1.88464e-05
-1.88471e-05
-1.88476e-05
-1.88481e-05
-1.88485e-05
-1.88487e-05
-1.88487e-05
-1.88483e-05
-1.88461e-05
-1.88452e-05
-1.88437e-05
0.00203917
-1.88458e-05
-1.885e-05
-1.88502e-05
-1.88506e-05
-1.88502e-05
-1.88506e-05
-1.88501e-05
-1.88433e-05
-1.88352e-05
-1.88318e-05
-1.88293e-05
-1.88249e-05
-1.88212e-05
-1.88219e-05
-1.8828e-05
-1.88282e-05
-1.88353e-05
-1.87878e-05
-1.87993e-05
-1.8813e-05
-1.88226e-05
0.00330316
0.00340028
0.00342849
0.00344386
0.00345628
0.00346986
0.00348568
0.00351124
0.00287131
0.0011823
-1.88411e-05
-1.88421e-05
-1.8843e-05
-1.88439e-05
-1.88448e-05
-1.88455e-05
-1.8846e-05
-1.88463e-05
-1.88461e-05
-1.88449e-05
0.00240037
0.00337315
-1.88435e-05
-1.88494e-05
-1.88498e-05
-1.88485e-05
-1.88462e-05
-1.8845e-05
-1.88446e-05
-1.88407e-05
-1.88381e-05
-1.88349e-05
-1.88361e-05
-1.88349e-05
-1.88423e-05
0.00343746
-1.88404e-05
-1.88354e-05
-1.88294e-05
-1.88291e-05
-1.88294e-05
-1.88395e-05
-1.88446e-05
0.00343944
-1.87838e-05
-1.87953e-05
-1.88116e-05
-1.88229e-05
0.00332357
0.00339444
0.00342896
0.00345032
0.00346841
0.00348771
0.00351535
0.00309266
0.00228278
0.000417658
-1.88408e-05
-1.88415e-05
-1.88422e-05
-1.88428e-05
-1.88433e-05
-1.88436e-05
-1.88434e-05
-1.88424e-05
0.00344196
0.00337541
-1.88435e-05
-1.88488e-05
-1.88487e-05
-1.88449e-05
-1.88403e-05
-1.88348e-05
-1.88356e-05
-1.88372e-05
-1.88375e-05
-1.88377e-05
-1.88387e-05
-1.88376e-05
-1.88373e-05
-1.88363e-05
-1.88358e-05
-1.88357e-05
-1.8844e-05
-1.88345e-05
-1.88343e-05
-1.8832e-05
-1.88384e-05
-1.88464e-05
-1.88456e-05
-1.88322e-05
-1.87793e-05
-1.87904e-05
-1.88102e-05
-1.88233e-05
0.00331057
0.00339014
0.00343231
0.00346038
0.00348407
0.00351375
0.00326558
0.00276772
0.00244833
0.0021469
0.00173198
0.00104832
0.000751495
0.00110394
0.00208364
0.00301425
0.00343363
0.0033791
0.00343643
-1.88461e-05
-1.88489e-05
-1.8847e-05
-1.88419e-05
-1.88341e-05
-1.88358e-05
-1.88361e-05
-1.88369e-05
-1.8838e-05
-1.88381e-05
-1.88384e-05
-1.88419e-05
-1.8843e-05
-1.88428e-05
-1.88421e-05
-1.88382e-05
-1.88339e-05
-1.88501e-05
-1.88391e-05
-1.8834e-05
-1.88313e-05
-1.88453e-05
-1.88457e-05
-1.8834e-05
-1.88197e-05
-1.87793e-05
-1.87848e-05
-1.88088e-05
0.000145925
0.00329823
0.0033886
0.0034394
0.00347416
0.00351047
0.00328955
0.0030217
0.00281626
0.00267648
0.00260952
0.00265767
0.00284249
0.00322449
0.00347225
0.00343478
0.00339334
0.0033824
0.00273058
-1.88465e-05
-1.88484e-05
-1.8846e-05
-1.88403e-05
-1.8833e-05
-1.8837e-05
-1.8835e-05
-1.88366e-05
-1.88365e-05
-1.88378e-05
-1.8841e-05
-1.88431e-05
-1.88431e-05
-1.88421e-05
-1.88414e-05
-1.88415e-05
-1.88415e-05
-1.8834e-05
-1.88434e-05
-1.88426e-05
-1.88341e-05
-1.8831e-05
-1.88482e-05
-1.88479e-05
-1.88217e-05
-1.88094e-05
-1.87793e-05
-1.87801e-05
-1.88077e-05
0.00107193
0.00328608
0.0033902
0.0034497
0.00349211
0.00338855
0.00315321
0.00300623
0.00294049
0.00298275
0.00314869
0.00349136
0.00347943
0.00344639
0.00341036
0.00338312
0.00340139
0.00124707
-1.88463e-05
-1.8848e-05
-1.88456e-05
-1.88398e-05
-1.88328e-05
-1.88365e-05
-1.88344e-05
-1.88352e-05
-1.88358e-05
-1.884e-05
-1.88421e-05
-1.88431e-05
-1.88427e-05
-1.88415e-05
-1.88402e-05
-1.88397e-05
-1.88399e-05
-1.88407e-05
-1.88394e-05
-1.88353e-05
-1.88447e-05
-1.88338e-05
-1.88321e-05
-1.88435e-05
-1.88482e-05
-1.88276e-05
-1.88119e-05
-1.87793e-05
-1.87793e-05
-1.88071e-05
0.00192097
0.00327444
0.00339525
0.0034626
0.00337509
0.00314037
0.00298407
0.00295283
0.00304208
0.00327931
0.00350657
0.00347615
0.00344075
0.00340537
0.00338483
0.00341384
0.000548711
-1.88458e-05
-1.88475e-05
-1.88455e-05
-1.88401e-05
-1.8832e-05
-1.88361e-05
-1.88331e-05
-1.88336e-05
-1.88359e-05
-1.88402e-05
-1.88421e-05
-1.88426e-05
-1.88424e-05
-1.88411e-05
-1.88399e-05
-1.88389e-05
-1.88385e-05
-1.88387e-05
-1.88396e-05
-1.88405e-05
-1.88327e-05
-1.8848e-05
-1.88292e-05
-1.88235e-05
-1.88286e-05
-1.88435e-05
0.00332055
-1.88429e-05
-1.87793e-05
-1.87793e-05
-1.88067e-05
0.00217052
0.0032618
0.00340194
0.00347508
0.0031802
0.00302178
0.00298175
0.00309901
0.00337307
0.00350832
0.00347784
0.00344206
0.00340774
0.00338922
0.00341745
0.00204747
-1.88449e-05
-1.88469e-05
-1.88456e-05
-1.88409e-05
-1.8833e-05
-1.8835e-05
-1.88313e-05
-1.88322e-05
-1.88351e-05
-1.88395e-05
-1.88414e-05
-1.88419e-05
-1.88417e-05
-1.88409e-05
-1.88396e-05
-1.88386e-05
-1.88379e-05
-1.88377e-05
-1.88378e-05
-1.88382e-05
-1.8839e-05
-1.88392e-05
-1.88345e-05
-1.88242e-05
-1.88182e-05
-1.88177e-05
-1.88204e-05
-1.88245e-05
-1.8841e-05
-1.87793e-05
-1.87793e-05
-1.88068e-05
0.00241063
0.00324988
0.00341151
0.00316653
0.00299125
0.00292962
0.00300899
0.00324849
0.00352158
0.00349817
0.00347289
0.00344807
0.00342665
0.00340843
0.00339318
0.00338312
0.00339909
0.00228643
-1.88463e-05
-1.88473e-05
-1.8842e-05
-1.88319e-05
-1.88331e-05
-1.88321e-05
-1.88348e-05
-1.88396e-05
-1.88411e-05
-1.8841e-05
-1.88402e-05
-1.88392e-05
-1.8838e-05
-1.88373e-05
-1.8837e-05
-1.88369e-05
-1.88369e-05
-1.88369e-05
-1.88369e-05
-1.88368e-05
-1.88368e-05
-1.88367e-05
-1.88361e-05
-1.88298e-05
-1.88811e-05
-1.88754e-05
-1.88747e-05
-1.87793e-05
-1.87793e-05
-1.88072e-05
0.00266602
0.00324495
0.00303571
0.00233672
0.00212045
0.00161561
0.000279643
-1.88384e-05
-1.88397e-05
-1.88408e-05
-1.88399e-05
-1.88345e-05
-1.88245e-05
-1.88273e-05
-1.88193e-05
-1.88171e-05
-1.88179e-05
-1.88194e-05
-1.8822e-05
-1.88232e-05
-1.88234e-05
-1.88227e-05
-1.88233e-05
-1.88244e-05
-1.88274e-05
-1.88332e-05
-1.88417e-05
0.00337956
-1.88346e-05
-1.88278e-05
-1.8837e-05
-1.88371e-05
-1.88366e-05
-1.88366e-05
-1.88367e-05
-1.88367e-05
-1.88367e-05
-1.88366e-05
-1.88364e-05
-1.88357e-05
-1.883e-05
-1.88189e-05
-1.8803e-05
-1.88535e-05
-1.88668e-05
-1.87793e-05
-1.87793e-05
-1.88074e-05
0.00270084
-1.88326e-05
-1.88353e-05
-1.88362e-05
-1.88369e-05
-1.88365e-05
-1.88322e-05
-1.88198e-05
-1.88167e-05
-1.88084e-05
-1.88104e-05
-1.88154e-05
-1.88174e-05
-1.88178e-05
-1.88174e-05
-1.88166e-05
-1.88156e-05
-1.88146e-05
-1.88137e-05
-1.88128e-05
-1.88121e-05
-1.88115e-05
-1.88111e-05
-1.88114e-05
-1.88118e-05
-1.88122e-05
-1.88126e-05
-1.88129e-05
-1.8814e-05
-1.88183e-05
-1.88212e-05
-1.88219e-05
-1.88187e-05
-1.88126e-05
-1.88244e-05
-1.88401e-05
-1.88087e-05
-1.8823e-05
-1.88276e-05
-1.8827e-05
-1.882e-05
-1.87999e-05
-1.88147e-05
-1.88282e-05
-1.88034e-05
-1.87793e-05
-1.87793e-05
-1.88066e-05
-1.88288e-05
-1.88274e-05
-1.88228e-05
-1.88147e-05
-1.88141e-05
-1.88005e-05
-1.88031e-05
-1.88091e-05
-1.88107e-05
-1.88097e-05
-1.88076e-05
-1.88051e-05
-1.88027e-05
-1.88005e-05
-1.87985e-05
-1.87979e-05
-1.87978e-05
-1.87979e-05
-1.87981e-05
-1.87985e-05
-1.87989e-05
-1.87994e-05
-1.87998e-05
-1.88003e-05
-1.88006e-05
-1.88009e-05
-1.88011e-05
-1.88016e-05
-1.88024e-05
-1.88062e-05
-1.88154e-05
-1.88224e-05
-1.8826e-05
-1.88274e-05
-1.88252e-05
-1.88157e-05
-1.87809e-05
-1.87994e-05
-1.8801e-05
-1.88102e-05
-1.88059e-05
-1.87954e-05
-1.87874e-05
-1.87809e-05
-1.87793e-05
-1.87793e-05
-1.87793e-05
-1.87939e-05
-1.8804e-05
-1.87964e-05
-1.87942e-05
-1.8794e-05
-1.87982e-05
-1.8802e-05
-1.88013e-05
-1.8799e-05
-1.87964e-05
-1.87942e-05
-1.87925e-05
-1.87911e-05
-1.87899e-05
-1.87889e-05
-1.87885e-05
-1.87883e-05
-1.87883e-05
-1.87884e-05
-1.87885e-05
-1.87887e-05
-1.8789e-05
-1.87892e-05
-1.87894e-05
-1.87895e-05
-1.87896e-05
-1.87893e-05
-1.8789e-05
-1.87883e-05
-1.87879e-05
-1.87884e-05
-1.87898e-05
-1.87949e-05
-1.87979e-05
-1.8803e-05
-1.88078e-05
-1.88063e-05
-1.87902e-05
-1.87793e-05
-1.87793e-05
-1.87793e-05
-1.87793e-05
-1.87793e-05
-1.87793e-05
-1.87793e-05
-1.87793e-05
-1.87793e-05
-1.87793e-05
-1.87903e-05
-1.87902e-05
-1.87916e-05
-1.87862e-05
-1.87893e-05
-1.8791e-05
-1.87892e-05
-1.87877e-05
-1.87868e-05
-1.8786e-05
-1.87854e-05
-1.87847e-05
-1.87841e-05
-1.87837e-05
-1.87836e-05
-1.87836e-05
-1.87838e-05
-1.87841e-05
-1.87845e-05
-1.87849e-05
-1.87853e-05
-1.87857e-05
-1.87861e-05
-1.87864e-05
-1.87866e-05
-1.87869e-05
-1.87871e-05
-1.87869e-05
-1.87857e-05
-1.87815e-05
-1.87793e-05
-1.87793e-05
-1.87793e-05
-1.87801e-05
-1.87865e-05
-1.87917e-05
-1.87959e-05
-1.88e-05
-1.88017e-05
-1.88009e-05
-1.87973e-05
-1.87934e-05
-1.87963e-05
-1.88244e-05
-1.88269e-05
-1.88147e-05
-1.87793e-05
-1.87982e-05
-1.8798e-05
-1.87948e-05
-1.87963e-05
-1.87885e-05
-1.87888e-05
-1.87895e-05
-1.87901e-05
-1.87899e-05
-1.87892e-05
-1.87881e-05
-1.8787e-05
-1.87859e-05
-1.87849e-05
-1.87841e-05
-1.8784e-05
-1.8784e-05
-1.8784e-05
-1.87841e-05
-1.87843e-05
-1.87845e-05
-1.87847e-05
-1.87849e-05
-1.8785e-05
-1.87852e-05
-1.87855e-05
-1.87856e-05
-1.87857e-05
-1.87857e-05
-1.8786e-05
-1.87857e-05
-1.87818e-05
-1.87793e-05
-1.87793e-05
-1.87793e-05
-1.87848e-05
-1.88129e-05
-1.88511e-05
-1.88621e-05
-1.88662e-05
-1.8868e-05
-1.88687e-05
-1.88687e-05
-1.88684e-05
-1.88681e-05
-1.8867e-05
-1.88657e-05
-1.87917e-05
-1.88085e-05
-1.88075e-05
-1.88037e-05
-1.87979e-05
-1.87945e-05
-1.87968e-05
-1.87986e-05
-1.87978e-05
-1.8796e-05
-1.8794e-05
-1.87922e-05
-1.87908e-05
-1.87896e-05
-1.87887e-05
-1.87879e-05
-1.87873e-05
-1.87868e-05
-1.87865e-05
-1.87862e-05
-1.87859e-05
-1.87859e-05
-1.8786e-05
-1.87861e-05
-1.87861e-05
-1.87862e-05
-1.87862e-05
-1.87863e-05
-1.87864e-05
-1.87865e-05
-1.87866e-05
-1.87863e-05
-1.87849e-05
-1.87813e-05
-1.87793e-05
-1.87824e-05
-1.88158e-05
-1.88454e-05
-1.88562e-05
-1.886e-05
-1.88614e-05
-1.88616e-05
-1.88608e-05
-1.88587e-05
-1.88563e-05
-1.88546e-05
-1.88526e-05
-1.88518e-05
-1.88096e-05
-1.88148e-05
-1.88132e-05
-1.88089e-05
-1.88043e-05
-1.88066e-05
-1.88083e-05
-1.88053e-05
-1.8802e-05
-1.87994e-05
-1.87974e-05
-1.87959e-05
-1.87947e-05
-1.87937e-05
-1.87928e-05
-1.87921e-05
-1.87915e-05
-1.8791e-05
-1.87906e-05
-1.87902e-05
-1.87899e-05
-1.87896e-05
-1.87894e-05
-1.87892e-05
-1.87891e-05
-1.8789e-05
-1.87889e-05
-1.87889e-05
-1.8789e-05
-1.87896e-05
-1.87918e-05
-1.8795e-05
-1.87931e-05
-1.87861e-05
-1.8784e-05
-1.87877e-05
-1.8812e-05
-1.88202e-05
-1.88183e-05
-1.88153e-05
-1.88118e-05
-1.88062e-05
-1.87977e-05
-1.87907e-05
-1.87887e-05
-1.87894e-05
-1.87888e-05
-1.87905e-05
-1.88063e-05
-1.88164e-05
-1.88156e-05
-1.88139e-05
-1.88178e-05
-1.88151e-05
-1.88105e-05
-1.88064e-05
-1.88038e-05
-1.88019e-05
-1.88005e-05
-1.87993e-05
-1.87983e-05
-1.87975e-05
-1.87968e-05
-1.87962e-05
-1.87957e-05
-1.87952e-05
-1.87948e-05
-1.87944e-05
-1.87941e-05
-1.87938e-05
-1.87935e-05
-1.87933e-05
-1.87931e-05
-1.8793e-05
-1.87929e-05
-1.87928e-05
-1.87926e-05
-1.87926e-05
-1.8794e-05
-1.88018e-05
-1.88199e-05
-1.88084e-05
-1.87884e-05
-1.87838e-05
-1.8782e-05
-1.87793e-05
-1.87793e-05
-1.87793e-05
-1.87793e-05
-1.87793e-05
-1.87793e-05
-1.87793e-05
-1.87793e-05
-1.87793e-05
-1.87793e-05
-1.87793e-05
-1.88086e-05
-1.88173e-05
-1.88163e-05
-1.88178e-05
-1.88222e-05
-1.88157e-05
-1.88109e-05
-1.88083e-05
-1.88064e-05
-1.8805e-05
-1.88038e-05
-1.88028e-05
-1.88019e-05
-1.88011e-05
-1.88005e-05
-1.87999e-05
-1.87993e-05
-1.87989e-05
-1.87984e-05
-1.87981e-05
-1.87978e-05
-1.87976e-05
-1.87974e-05
-1.87973e-05
-1.87971e-05
-1.87971e-05
-1.8797e-05
-1.87969e-05
-1.87967e-05
-1.87963e-05
-1.87958e-05
-1.87983e-05
-1.8812e-05
-1.8829e-05
-1.87991e-05
-1.87848e-05
-1.87809e-05
-1.87793e-05
-1.87793e-05
-1.87793e-05
-1.87793e-05
-1.87793e-05
-1.87793e-05
-1.87793e-05
-1.87793e-05
-1.87793e-05
-1.87793e-05
-1.87802e-05
-1.88109e-05
-1.88169e-05
-1.88163e-05
-1.88182e-05
-1.88208e-05
-1.88168e-05
-1.88136e-05
-1.88113e-05
-1.881e-05
-1.8809e-05
-1.8808e-05
-1.88072e-05
-1.88064e-05
-1.88056e-05
-1.88049e-05
-1.8804e-05
-1.88032e-05
-1.88025e-05
-1.88019e-05
-1.88014e-05
-1.8801e-05
-1.88007e-05
-1.88004e-05
-1.88002e-05
-1.88001e-05
-1.88e-05
-1.88e-05
-1.88001e-05
-1.88002e-05
-1.87999e-05
-1.87988e-05
-1.87975e-05
-1.88002e-05
-1.88194e-05
-1.8822e-05
-1.87921e-05
-1.87845e-05
-1.878e-05
-1.87793e-05
-1.87793e-05
-1.87793e-05
-1.87793e-05
-1.87793e-05
-1.87793e-05
-1.87845e-05
-1.87923e-05
-1.88031e-05
-1.88083e-05
-1.88114e-05
-1.88161e-05
-1.88155e-05
-1.88156e-05
-1.88158e-05
-1.88157e-05
-1.88158e-05
-1.88158e-05
-1.88157e-05
-1.88155e-05
-1.8815e-05
-1.88144e-05
-1.88134e-05
-1.88122e-05
-1.88108e-05
-1.88099e-05
-1.88088e-05
-1.88078e-05
-1.88067e-05
-1.88058e-05
-1.88049e-05
-1.88042e-05
-1.88035e-05
-1.88028e-05
-1.88024e-05
-1.8802e-05
-1.88018e-05
-1.88018e-05
-1.8802e-05
-1.88022e-05
-1.88018e-05
-1.87997e-05
-1.87977e-05
-1.88025e-05
-1.88253e-05
-1.88286e-05
-1.88117e-05
-1.8797e-05
-1.87911e-05
-1.87889e-05
-1.87905e-05
-1.87966e-05
-1.88151e-05
-1.88273e-05
-1.88339e-05
-1.88386e-05
-1.88393e-05
-1.88378e-05
-1.88109e-05
-1.88137e-05
-1.88123e-05
-1.88098e-05
-1.8807e-05
-1.88072e-05
-1.88086e-05
-1.88101e-05
-1.88113e-05
-1.88123e-05
-1.88132e-05
-1.8814e-05
-1.88147e-05
-1.88154e-05
-1.8816e-05
-1.88165e-05
-1.88169e-05
-1.88169e-05
-1.88165e-05
-1.88155e-05
-1.88139e-05
-1.88118e-05
-1.88102e-05
-1.88086e-05
-1.88071e-05
-1.88058e-05
-1.88046e-05
-1.88038e-05
-1.88033e-05
-1.88033e-05
-1.88033e-05
-1.88023e-05
-1.87994e-05
-1.87975e-05
-1.88095e-05
-1.88312e-05
-1.88372e-05
-1.88395e-05
-1.88389e-05
-1.88388e-05
-1.88411e-05
-1.88434e-05
-1.88452e-05
-1.88459e-05
-1.88444e-05
-1.88412e-05
-1.88356e-05
-1.8833e-05
-1.88072e-05
-1.88051e-05
-1.87979e-05
-1.87851e-05
-1.87807e-05
-1.8786e-05
-1.87916e-05
-1.87957e-05
-1.87987e-05
-1.88011e-05
-1.88031e-05
-1.88047e-05
-1.88063e-05
-1.88078e-05
-1.88093e-05
-1.88106e-05
-1.88119e-05
-1.88133e-05
-1.88148e-05
-1.88162e-05
-1.88175e-05
-1.88187e-05
-1.88197e-05
-1.88204e-05
-1.88206e-05
-1.88203e-05
-1.88194e-05
-1.88177e-05
-1.88152e-05
-1.88121e-05
-1.88101e-05
-1.88085e-05
-1.88055e-05
-1.88002e-05
-1.87993e-05
-1.88128e-05
-1.88282e-05
-1.88335e-05
-1.88369e-05
-1.88386e-05
-1.88385e-05
-1.88371e-05
-1.88339e-05
-1.88312e-05
-1.88261e-05
-1.88185e-05
-1.88103e-05
-1.88079e-05
-1.87898e-05
-1.87793e-05
-1.87793e-05
-1.87793e-05
-1.87793e-05
-1.87793e-05
-1.87793e-05
-1.87793e-05
-1.87793e-05
-1.87793e-05
-1.87793e-05
-1.87793e-05
-1.87823e-05
-1.87875e-05
-1.87919e-05
-1.87956e-05
-1.87987e-05
-1.88012e-05
-1.88033e-05
-1.88052e-05
-1.88071e-05
-1.88091e-05
-1.88111e-05
-1.8813e-05
-1.8815e-05
-1.8817e-05
-1.88189e-05
-1.88206e-05
-1.8822e-05
-1.8823e-05
-1.8824e-05
-1.8825e-05
-1.88256e-05
-1.88239e-05
-1.88182e-05
-1.88187e-05
-1.88248e-05
-1.88287e-05
-1.8831e-05
-1.88313e-05
-1.88295e-05
-1.88267e-05
-1.88221e-05
-1.88178e-05
-1.88143e-05
-1.88108e-05
-1.88083e-05
-1.88064e-05
-1.87793e-05
-1.87793e-05
-1.87793e-05
-1.87793e-05
-1.87793e-05
-1.87793e-05
-1.87793e-05
-1.87793e-05
-1.87793e-05
-1.87793e-05
-1.87793e-05
-1.87793e-05
-1.87793e-05
-1.87793e-05
-1.87793e-05
-1.87793e-05
-1.87793e-05
-1.87793e-05
-1.87793e-05
-1.87793e-05
-1.87793e-05
-1.87836e-05
-1.87894e-05
-1.8794e-05
-1.87976e-05
-1.88004e-05
-1.88027e-05
-1.88048e-05
-1.88068e-05
-1.88091e-05
-1.88113e-05
-1.88136e-05
-1.88162e-05
-1.88185e-05
-1.88179e-05
-1.88153e-05
-1.88153e-05
-1.88176e-05
-1.88201e-05
-1.88211e-05
-1.88203e-05
-1.88192e-05
-1.88178e-05
-1.88178e-05
-1.88194e-05
-1.88207e-05
-1.88215e-05
-1.88213e-05
-1.87793e-05
-1.87793e-05
-1.87793e-05
-1.87793e-05
-1.87793e-05
-1.87793e-05
-1.87793e-05
-1.87793e-05
-1.87793e-05
-1.87793e-05
-1.87793e-05
-1.87793e-05
-1.87793e-05
-1.87793e-05
-1.87793e-05
-1.87793e-05
-1.87793e-05
-1.87793e-05
-1.87793e-05
-1.87793e-05
-1.87793e-05
-1.87793e-05
-1.87793e-05
-1.87793e-05
-1.87793e-05
-1.87793e-05
-1.87793e-05
-1.87793e-05
-1.87793e-05
-1.87793e-05
-1.87793e-05
-1.87817e-05
-1.87869e-05
-1.87913e-05
-1.87944e-05
-1.87959e-05
-1.8797e-05
-1.87982e-05
-1.87992e-05
-1.88001e-05
-1.88013e-05
-1.88023e-05
-1.88031e-05
-1.88036e-05
-1.8804e-05
-1.88049e-05
-1.8806e-05
-1.88078e-05
-1.87793e-05
-1.87793e-05
-1.87793e-05
-1.87793e-05
-1.87793e-05
-1.87793e-05
-1.87793e-05
-1.87793e-05
-1.87793e-05
-1.87793e-05
-1.87793e-05
-1.87793e-05
-1.87793e-05
-1.87793e-05
-1.87793e-05
-1.87793e-05
-1.87793e-05
-1.87793e-05
-1.87793e-05
-1.87793e-05
-1.87793e-05
-1.87793e-05
-1.87793e-05
-1.87793e-05
-1.87793e-05
-1.87793e-05
-1.87793e-05
-1.87793e-05
-1.87793e-05
-1.87793e-05
-1.87793e-05
-1.87793e-05
-1.87793e-05
-1.87793e-05
-1.87793e-05
-1.87793e-05
-1.87793e-05
-1.87793e-05
-1.87793e-05
-1.87793e-05
-1.87793e-05
-1.87793e-05
-1.87793e-05
-1.87793e-05
-1.87793e-05