/*--------------------------------*- C++ -*----------------------------------*\
| =========                 |                                                 |
| \\      /  F ield         | OpenFOAM: The Open Source CFD Toolbox           |
|  \\    /   O peration     | Version:  2212                                  |
|   \\  /    A nd           | Website:  www.openfoam.com                      |
|    \\/     M anipulation  |                                                 |
\*---------------------------------------------------------------------------*/
FoamFile
{
    version     2.0;
    format      ascii;
    arch        "LSB;label=32;scalar=64";
    class       volScalarField;
    location    "10000";
    object      Gamma_w;
}
// * * * * * * * * * * * * * * * * * * * * * * * * * * * * * * * * * * * * * //

dimensions      [0 0 0 0 0 0 0];

internalField   nonuniform List<scalar> 
18080
(
0.00329194
0.00328953
0.00328016
0.00326755
0.00330238
0.00336568
0.0034439
0.00358922
0.00371852
0.00390786
0.00410496
0.00434074
0.00461711
0.00493638
0.00530115
0.00571415
0.00617814
0.00669571
0.00719906
0.00784343
0.00855294
0.00932875
0.0101707
0.0110771
0.0120446
0.0130666
0.0141351
0.0151261
0.0163196
0.0175347
0.0187533
0.0199587
0.0211306
0.0222498
0.0231365
0.0241975
0.0251569
0.026002
0.0267236
0.0270585
0.0276351
0.028078
0.0283924
0.0285877
0.0286876
0.0287402
0.0287784
0.0288064
0.00331765
0.0033158
0.0033077
0.00329634
0.00333265
0.00339937
0.00348132
0.00363156
0.00376685
0.00396015
0.00415491
0.00438957
0.00466604
0.00498667
0.00535405
0.00577093
0.00624005
0.006764
0.00727727
0.00793113
0.00865145
0.00943933
0.0102946
0.0112155
0.0121987
0.0132375
0.0143238
0.015339
0.0165543
0.0177922
0.0190346
0.0202644
0.0214611
0.0226053
0.0235199
0.0246077
0.025593
0.0264629
0.0272078
0.0275594
0.0281586
0.0286219
0.0289543
0.0291652
0.0292785
0.0293432
0.0293929
0.0294319
0.00335317
0.00335209
0.00334502
0.00333453
0.00337155
0.00344107
0.00352554
0.00367882
0.00381756
0.00397494
0.00421273
0.00445193
0.00473363
0.0050602
0.00543428
0.00585868
0.0063362
0.00686949
0.00739618
0.00806241
0.00879643
0.00959939
0.0104712
0.0114101
0.0124127
0.0134725
0.0145813
0.015628
0.0168713
0.0181387
0.0194119
0.0206735
0.0219027
0.0230796
0.0240314
0.0251545
0.0261741
0.0270768
0.0278527
0.0282266
0.0288559
0.0293462
0.0297025
0.0299341
0.0300651
0.0301455
0.0302101
0.0302629
0.00339916
0.00339872
0.00339231
0.00338255
0.00342001
0.00349275
0.00358001
0.00373668
0.00387939
0.0040412
0.00428294
0.0045277
0.0048158
0.00514968
0.00553207
0.00596585
0.00645389
0.00699889
0.0075428
0.00822468
0.00897604
0.00979811
0.0106908
0.0116525
0.0126798
0.013766
0.0149031
0.0159898
0.017268
0.0185723
0.0198837
0.0211848
0.0224541
0.0236714
0.0246697
0.0258364
0.0268983
0.0278415
0.0286554
0.0290565
0.0297225
0.0302458
0.0306311
0.0308875
0.0310396
0.031139
0.0312211
0.0312903
0.00345863
0.00345892
0.00345329
0.00344431
0.00348213
0.00355882
0.00364948
0.00381025
0.00395777
0.00412494
0.00437146
0.00462311
0.00491916
0.00526214
0.00565485
0.00610025
0.00660129
0.00709435
0.00772634
0.00842754
0.00920026
0.0100458
0.0109642
0.0119538
0.0130113
0.0141298
0.0151613
0.016438
0.017759
0.0191082
0.0204663
0.0218154
0.0231336
0.0244002
0.0254562
0.0266762
0.0277897
0.0287823
0.0296426
0.0300769
0.0307878
0.0313514
0.0317719
0.0320586
0.0322366
0.0323589
0.0324626
0.032552
0.00353553
0.0035366
0.00353171
0.00352355
0.00352722
0.00360677
0.00373785
0.00390359
0.004057
0.00423076
0.00448305
0.00474329
0.00504924
0.00540352
0.00580902
0.00626881
0.00678593
0.00730284
0.00795636
0.00868149
0.00948065
0.0103553
0.0113054
0.0123294
0.013424
0.0145823
0.0156695
0.0169959
0.0183695
0.019774
0.0211892
0.0225972
0.0239753
0.0250594
0.0264302
0.0277155
0.0288922
0.0299451
0.0308621
0.0313372
0.0321031
0.032716
0.0331798
0.0335035
0.033713
0.0338636
0.0339937
0.034108
0.0036352
0.00363711
0.00363302
0.00362571
0.00363072
0.00371445
0.00385111
0.00402281
0.00418366
0.00436558
0.00458162
0.00489567
0.00521393
0.00558226
0.00600365
0.00648129
0.00695671
0.00756579
0.00824611
0.00900099
0.00983297
0.0107436
0.0117329
0.0127995
0.0139399
0.0151471
0.0163053
0.0176931
0.0191316
0.020604
0.0220896
0.0235697
0.0250212
0.0261888
0.0276409
0.0290062
0.0302604
0.0313874
0.0323738
0.0328989
0.0337324
0.0344058
0.0349226
0.0352917
0.0355398
0.035725
0.0358876
0.0360325
0.00376477
0.00376758
0.00376427
0.00375786
0.00376435
0.00385327
0.00399682
0.00417574
0.00434578
0.00453799
0.00476553
0.00504146
0.00542316
0.005809
0.00618953
0.00669138
0.00725975
0.00789887
0.00861269
0.0094047
0.0102776
0.011233
0.0122711
0.0133904
0.0145874
0.0157073
0.0171047
0.0185686
0.0200875
0.0216438
0.0232162
0.0247853
0.026327
0.0276008
0.0291531
0.0306172
0.0319669
0.0331848
0.0342566
0.0348435
0.0357604
0.0365085
0.0370907
0.0375157
0.0378114
0.0380393
0.038242
0.0384247
0.00393384
0.0039376
0.00393502
0.00392953
0.00393769
0.00403309
0.0041852
0.00437287
0.00455446
0.00475964
0.00500169
0.00529477
0.0056418
0.00604629
0.00651225
0.00704401
0.00764611
0.00832301
0.00907889
0.00991744
0.0108415
0.0118528
0.0129517
0.0141366
0.0154039
0.0166285
0.0181155
0.0196743
0.0212931
0.0229537
0.0246335
0.0263126
0.0279657
0.0293766
0.0310532
0.0326394
0.034107
0.0354374
0.0366145
0.0372784
0.0382988
0.0391393
0.0398023
0.0402965
0.040651
0.0409315
0.0411839
0.0414134
0.00415551
0.00416023
0.00415825
0.00415364
0.00416368
0.00426725
0.00443001
0.00462823
0.00482449
0.00504606
0.00530665
0.00562152
0.00599396
0.00642773
0.00692713
0.00749681
0.0081416
0.00886625
0.00967521
0.0105724
0.0115608
0.0126422
0.0138171
0.0150838
0.0162932
0.0178025
0.0194019
0.0210795
0.0228232
0.0246138
0.0264274
0.0282431
0.0300344
0.0316248
0.0334562
0.0351944
0.0368087
0.0382786
0.0395861
0.0403468
0.041496
0.0424517
0.0432152
0.0437951
0.0442226
0.0445684
0.0448821
0.0451698
0.00444783
0.00445343
0.00445177
0.00444798
0.00446012
0.00457407
0.00475013
0.00491368
0.00517599
0.00541852
0.00570284
0.00604561
0.00645055
0.00692174
0.00746385
0.00808189
0.00878103
0.00956636
0.0104426
0.0114139
0.0124835
0.0136533
0.0149237
0.0161329
0.0176667
0.0193096
0.021051
0.0228783
0.0247789
0.0267325
0.0287133
0.0306996
0.0324006
0.0344933
0.0365188
0.0384473
0.0402446
0.0418884
0.0433582
0.0442421
0.0455526
0.0466522
0.0475413
0.048228
0.0487459
0.0491726
0.0495626
0.0499224
0.00483599
0.00484225
0.00484041
0.00483726
0.00485176
0.00497908
0.00517172
0.00535476
0.00563651
0.0059062
0.00622104
0.00659995
0.00704678
0.00756616
0.00816317
0.00884325
0.00961201
0.0104749
0.0114369
0.0125025
0.013675
0.0149564
0.0161872
0.0177546
0.0194474
0.0212604
0.0231823
0.0251992
0.0272981
0.0294572
0.0316483
0.0338485
0.0358457
0.0381857
0.0404561
0.0426241
0.0446513
0.046513
0.0481859
0.0492282
0.0507421
0.0520226
0.0530688
0.0538887
0.0545191
0.0550461
0.0555306
0.0559796
0.00535566
0.00536209
0.00535924
0.00535652
0.00537371
0.00551845
0.00573163
0.00594049
0.00618302
0.00654958
0.00690415
0.00733008
0.00783132
0.00841318
0.00908124
0.00984143
0.0106998
0.0116623
0.0127341
0.0139199
0.0152232
0.0165068
0.0181223
0.0198798
0.021777
0.0238083
0.0259609
0.0282195
0.0305705
0.0329899
0.0354467
0.037642
0.0403308
0.0429859
0.0455673
0.0480386
0.0503561
0.0524924
0.0544202
0.0556706
0.0574419
0.0589506
0.0601942
0.0611806
0.0619505
0.0626015
0.0632024
0.0637615
0.00605813
0.00606378
0.00606001
0.00605716
0.00607727
0.00624486
0.00648294
0.00672645
0.00700847
0.00740547
0.00781219
0.00829957
0.00887216
0.0095355
0.010296
0.01116
0.0121342
0.0132248
0.0144374
0.0156315
0.0171593
0.0188436
0.0206877
0.0226922
0.0248542
0.0271673
0.0296165
0.0321847
0.0348574
0.0376081
0.0400597
0.0431397
0.0462344
0.0492936
0.0522728
0.0551307
0.057817
0.0603006
0.0625499
0.0640796
0.0661786
0.0679763
0.0694684
0.0706627
0.0716052
0.0724084
0.0731519
0.0738453
0.00701836
0.00702159
0.00701623
0.00701254
0.00703593
0.00723385
0.00750086
0.00779175
0.00812757
0.00850965
0.00895583
0.00959604
0.0102623
0.0110323
0.0119132
0.012912
0.0139035
0.0151874
0.0166285
0.0182358
0.020017
0.021978
0.0241222
0.0264496
0.0289562
0.0316344
0.0344664
0.0374323
0.0405169
0.0433264
0.0468717
0.0504741
0.0540956
0.0576773
0.0611685
0.0645222
0.0676791
0.0706043
0.0732601
0.0751767
0.077695
0.0798601
0.0816651
0.0831179
0.0842723
0.0852605
0.0861764
0.0870312
0.00834962
0.00834784
0.0083397
0.0083342
0.00836134
0.00859967
0.00882802
0.00925361
0.00966393
0.0101294
0.0106691
0.0113231
0.0120991
0.0130053
0.0140517
0.0152496
0.0166102
0.018145
0.0198651
0.0217801
0.0238982
0.0262256
0.028765
0.0315155
0.0344716
0.0376235
0.0409497
0.0444266
0.0477675
0.0518719
0.0560957
0.060384
0.064694
0.0689552
0.073109
0.0771014
0.080861
0.0843486
0.0875191
0.0899929
0.0930493
0.0956813
0.0978792
0.0996515
0.101062
0.102271
0.10339
0.104435
0.0102263
0.0102182
0.0102046
0.0101949
0.0102255
0.0105167
0.0108052
0.011285
0.0117996
0.0123814
0.0130506
0.0138591
0.0148159
0.0159315
0.0172168
0.0186854
0.0203501
0.022224
0.0243191
0.0266456
0.0292121
0.0320239
0.0350829
0.0383862
0.0419261
0.0456899
0.049277
0.0538394
0.0586293
0.0636181
0.0687428
0.0739368
0.079151
0.0842994
0.089313
0.0941297
0.0986618
0.102866
0.105763
0.110002
0.11375
0.116974
0.119663
0.121825
0.123539
0.125003
0.126355
0.127614
0.012906
0.0128894
0.0128666
0.0128488
0.0128819
0.0132403
0.013616
0.014073
0.0147898
0.0155351
0.0163849
0.0174076
0.018614
0.020017
0.0216293
0.023466
0.0255422
0.027872
0.0304681
0.0333408
0.0364977
0.0399431
0.0436763
0.0476916
0.0517423
0.0567653
0.0621353
0.0678099
0.0737517
0.0799261
0.0862509
0.0926433
0.0990473
0.105355
0.111486
0.117366
0.122888
0.128003
0.132047
0.137306
0.141944
0.145921
0.149218
0.151849
0.153915
0.155663
0.15727
0.15876
0.0167916
0.0167615
0.0167232
0.0166911
0.0167245
0.0171602
0.0176654
0.0182757
0.0189932
0.0198209
0.0210709
0.0223891
0.0239379
0.0257323
0.0277868
0.0301181
0.0327427
0.0356752
0.0389278
0.0425096
0.0459874
0.050573
0.0556154
0.0611209
0.0670854
0.0734944
0.0803222
0.0875077
0.0950019
0.102763
0.110683
0.118658
0.126626
0.134446
0.142024
0.149276
0.156064
0.161055
0.168367
0.174959
0.180747
0.185674
0.189722
0.192908
0.195364
0.197412
0.199278
0.200998
0.0225141
0.0224623
0.0223983
0.0223409
0.0223688
0.0228699
0.0235708
0.0244114
0.0253945
0.0265241
0.0278232
0.0294212
0.0313382
0.0335974
0.0362246
0.0392494
0.0427044
0.0466214
0.051032
0.0559649
0.0614453
0.0674933
0.07412
0.0813271
0.0891023
0.0974201
0.106241
0.115476
0.125061
0.134946
0.144983
0.155037
0.165045
0.174827
0.184275
0.193289
0.199707
0.209825
0.219125
0.227464
0.234729
0.240854
0.245812
0.249632
0.252491
0.254814
0.256905
0.258817
0.0310696
0.0309828
0.030876
0.0307732
0.030783
0.0309797
0.0322644
0.0334559
0.034841
0.0364251
0.0382295
0.0404396
0.0430826
0.0461891
0.049793
0.0539328
0.0586486
0.0639787
0.0699612
0.0766287
0.0840065
0.0921125
0.100952
0.110516
0.12078
0.131698
0.143213
0.155192
0.167554
0.180243
0.193055
0.20582
0.218476
0.230785
0.242627
0.251759
0.265742
0.278814
0.290758
0.301381
0.310543
0.318158
0.324198
0.328706
0.331927
0.334435
0.336645
0.338642
0.0440441
0.0439002
0.0437205
0.0435358
0.0435002
0.0437226
0.0451218
0.0468524
0.0488502
0.0511216
0.0536821
0.0568007
0.060514
0.064861
0.0698869
0.0756397
0.082168
0.0895175
0.0977298
0.106837
0.11686
0.127809
0.139676
0.152435
0.166038
0.180416
0.195483
0.211047
0.227011
0.243324
0.259717
0.275961
0.292009
0.307558
0.322604
0.341902
0.360252
0.377304
0.392761
0.406373
0.417956
0.427404
0.434692
0.439886
0.443329
0.44581
0.447912
0.449771
0.0639791
0.0637401
0.0634345
0.0630997
0.0629623
0.0631893
0.0637891
0.0666409
0.0695658
0.0728669
0.0765507
0.0809984
0.086261
0.0923885
0.0994403
0.107472
0.116539
0.126688
0.13796
0.150378
0.16395
0.178669
0.194506
0.21141
0.22931
0.248106
0.267663
0.287729
0.308204
0.329065
0.349932
0.370547
0.392614
0.419876
0.446623
0.472392
0.496727
0.519142
0.53927
0.556785
0.571444
0.583118
0.591785
0.597552
0.6009
0.602927
0.60448
0.605783
0.0949692
0.0945695
0.094042
0.0934293
0.0930769
0.0932525
0.0939788
0.0952547
0.0997445
0.104536
0.109834
0.116145
0.123554
0.132123
0.141919
0.152998
0.165414
0.179206
0.194402
0.211007
0.229003
0.248361
0.269043
0.290955
0.313969
0.337985
0.362876
0.388293
0.414166
0.443515
0.479846
0.51702
0.554482
0.591693
0.627993
0.662729
0.69529
0.725022
0.75141
0.77403
0.792586
0.806909
0.816986
0.822988
0.825594
0.826353
0.826534
0.826517
0.143645
0.142969
0.142046
0.140917
0.14013
0.140128
0.140961
0.142623
0.145097
0.148373
0.156498
0.165199
0.17532
0.186922
0.200064
0.214791
0.231144
0.249141
0.26879
0.290075
0.312948
0.337354
0.363226
0.390453
0.417428
0.456337
0.498234
0.542951
0.59015
0.639419
0.690302
0.742134
0.79411
0.845459
0.895247
0.942546
0.986514
1.02625
1.06105
1.09033
1.11372
1.13103
1.14228
1.14772
1.14833
1.14637
1.14377
1.14116
0.220789
0.219659
0.218025
0.215935
0.214291
0.21385
0.214702
0.216825
0.220183
0.224749
0.230511
0.238396
0.248646
0.26137
0.276708
0.294823
0.315903
0.340153
0.367784
0.399019
0.434071
0.473125
0.516324
0.563802
0.6156
0.671671
0.73186
0.795888
0.863226
0.933242
1.00524
1.07821
1.15094
1.2223
1.29094
1.35554
1.41497
1.46802
1.51374
1.55138
1.58045
1.6008
1.61246
1.61584
1.61236
1.60529
1.59767
1.59051
0.344115
0.342252
0.339287
0.335367
0.332047
0.330629
0.331252
0.333854
0.338355
0.344708
0.352873
0.364179
0.37905
0.39764
0.420143
0.446785
0.477817
0.513519
0.554186
0.600118
0.651556
0.708772
0.771972
0.841277
0.916709
0.998155
1.08533
1.17776
1.27456
1.37473
1.47718
1.58042
1.68263
1.78214
1.87707
1.96553
2.04602
2.11687
2.17682
2.22491
2.26052
2.28348
2.294
2.29262
2.28137
2.26519
2.24887
2.23392
0.542419
0.53918
0.533687
0.526239
0.519623
0.516091
0.51583
0.518671
0.524457
0.533076
0.544436
0.560394
0.581759
0.608737
0.641582
0.680596
0.726125
0.778559
0.83831
0.905742
0.981311
1.06538
1.15821
1.25989
1.37037
1.48934
1.61628
1.75036
1.89017
2.03415
2.18064
2.32735
2.47158
2.61088
2.74256
2.86397
2.97312
3.06771
3.14608
3.207
3.2497
3.27405
3.28045
3.26905
1.6068
1.22469
1.14525
1.04832
0.862954
0.857049
0.846553
0.832026
0.818529
0.81005
0.806782
0.808317
0.814396
0.824748
0.83915
0.859803
0.888766
0.926307
0.972824
1.0288
1.09478
1.17133
1.25897
1.35823
1.46962
1.29652
0.974014
0.756335
0.606215
0.500536
0.42509
0.370802
0.329391
0.298477
0.275424
0.257148
0.242193
0.230686
0.219534
0.210376
0.200776
0.190659
0.179635
0.167566
0.154463
0.139649
0.120583
0.0709508
0.0412305
0.0311101
0.0232657
0.0165501
1.38414
1.3734
1.35377
1.32602
1.29958
1.28146
1.27168
1.26953
1.27453
1.28621
1.30424
1.33093
1.37083
1.42422
1.00632
0.412691
0.19034
0.10111
0.0613483
0.04159
0.0307665
0.0243434
0.0202769
0.0175682
0.0157006
0.0143773
0.0134267
0.0127412
0.0121943
0.0117762
0.0114641
0.011206
0.0109856
0.010816
0.0105976
0.0104033
0.0101328
0.00974054
0.00921466
0.00858908
0.00788713
0.00705371
0.00604189
0.00572943
0.00527011
0.00377281
0.00253761
0.00192254
2.23566
2.21596
2.17921
2.12498
2.0745
2.03963
2.01916
2.01097
2.01406
1.16199
0.339202
0.114162
0.0495188
0.027624
0.0186462
0.0144482
0.0123745
0.011367
0.0109615
0.0109232
0.0111121
0.0114324
0.0118123
0.0121968
0.0125585
0.0128851
0.013149
0.0133331
0.0134345
0.0134653
0.0134425
0.0134099
0.0134135
0.0133707
0.0131733
0.0128682
0.0124148
0.0117221
0.0110619
0.0104487
0.00958954
0.0084527
0.00713756
0.00654977
0.00702551
0.00702826
0.00729229
0.00779737
3.63319
3.5952
3.51434
3.37803
1.19165
0.625854
0.308343
0.113825
0.0445771
0.0230679
0.0154927
0.0128229
0.0124162
0.0134805
0.01577
0.019152
0.0234748
0.0284944
0.033886
0.0392692
0.04427
0.0485729
0.0519666
0.054362
0.0557126
0.0560549
0.0555482
0.05438
0.0529589
0.0513908
0.0498415
0.0481625
0.0461299
0.0432418
0.0403495
0.0377149
0.0353879
0.0334238
0.0312705
0.0264391
0.0205974
0.0156858
0.0123678
0.0126331
0.0156971
0.0185169
0.0224332
0.0268635
5.93707
5.83955
5.55032
0.273473
0.0993902
0.0537411
0.0256025
0.0147286
0.0117205
0.0122254
0.0153852
0.021306
0.030186
0.0419687
0.056164
0.0719078
0.0880981
0.103608
0.11753
0.129096
0.137822
0.14355
0.146419
0.146797
0.14511
0.141865
0.137564
0.132737
0.12794
0.12278
0.118038
0.113462
0.105517
0.094662
0.0850511
0.0771984
0.0744945
0.0698001
0.0560699
0.0420772
0.0344989
0.0325314
0.0352967
0.0435269
0.0552343
0.0661202
0.0785652
0.0926695
9.7363
9.2361
0.70958
0.0657429
0.034645
0.0210103
0.0146667
0.0158409
0.0224309
0.0349079
0.053805
0.0786882
0.107997
0.139449
0.170425
0.198577
0.221992
0.239493
0.250502
0.255187
0.254728
0.250418
0.243523
0.235121
0.225972
0.216646
0.207538
0.19909
0.191461
0.183255
0.174843
0.167249
0.158582
0.152199
0.150696
0.144325
0.126591
0.103513
0.0773798
0.066813
0.0675531
0.076373
0.0931736
0.116984
0.145441
0.172181
0.201681
0.233343
15.7758
1.07776
0.122237
0.0463603
0.031803
0.0252361
0.0306877
0.0490048
0.0809186
0.126226
0.181301
0.239874
0.295057
0.340849
0.373288
0.391581
0.396927
0.391843
0.378729
0.360763
0.341078
0.321575
0.30337
0.286951
0.272339
0.25944
0.2481
0.237988
0.229314
0.221623
0.213461
0.203099
0.195626
0.190387
0.186842
0.179769
0.158576
0.126056
0.109928
0.118307
0.14202
0.175041
0.216632
0.273479
0.341106
0.401132
0.453204
0.49619
3.61723
0.187844
0.075301
0.0579365
0.0499808
0.0580537
0.0981277
0.167612
0.2591
0.355928
0.447911
0.525407
0.577754
0.602955
0.605791
0.590584
0.561316
0.525202
0.488352
0.454028
0.423362
0.396905
0.374609
0.35595
0.340242
0.327083
0.316022
0.306002
0.296598
0.287782
0.280447
0.277449
0.276861
0.27779
0.272761
0.254503
0.227819
0.20539
0.236257
0.296185
0.374823
0.465873
0.557297
0.652308
0.743991
0.807192
0.848171
0.878753
0.424976
0.108914
0.0940483
0.0932433
0.10403
0.171059
0.291106
0.457877
0.66237
0.848073
0.966712
1.00722
0.984447
0.92294
0.84531
0.769721
0.70583
0.652441
0.606299
0.566324
0.532987
0.505732
0.483672
0.465687
0.450731
0.438451
0.428353
0.419039
0.409355
0.397452
0.384254
0.380844
0.392783
0.427514
0.442274
0.40634
0.365795
0.418411
0.564583
0.759107
0.970022
1.17263
1.3236
1.31397
1.30356
1.30247
1.30826
1.3209
0.159613
0.130419
0.154851
0.176754
0.250124
0.457998
0.831867
1.12002
1.1544
1.17755
1.18694
1.18638
1.17696
1.16083
1.14462
1.02886
0.91429
0.82535
0.758079
0.70887
0.673527
0.647164
0.62726
0.611439
0.598213
0.587279
0.578061
0.56985
0.562539
0.55309
0.534018
0.505223
0.510393
0.558522
0.631311
0.647649
0.638846
0.751609
0.974017
1.24904
1.37047
1.37298
1.37399
1.36901
1.36251
1.36647
1.37915
1.39961
0.141742
0.215089
0.304797
0.399225
0.710876
1.24317
1.30747
1.36792
1.41409
1.43346
1.4279
1.40475
1.36999
1.32813
1.2821
1.23672
1.19579
1.15758
1.06963
0.993884
0.937282
0.893849
0.858471
0.829501
0.805283
0.785758
0.770308
0.757388
0.748713
0.742779
0.735129
0.695803
0.644558
0.656968
0.801935
1.05873
1.21433
1.32672
1.41104
1.41849
1.42448
1.42865
1.42957
1.42797
1.42962
1.44449
1.46887
1.50125
0.193833
0.44184
0.908599
1.41403
1.43105
1.56127
1.68128
1.74613
1.76858
1.75758
1.72076
1.66922
1.61016
1.54809
1.48385
1.42088
1.36137
1.30522
1.25266
1.20357
1.15668
1.1115
1.12163
1.13737
1.15287
1.16119
1.1302
1.10345
1.08493
1.07637
1.08584
1.08628
1.00112
0.87942
0.97489
1.31641
1.40682
1.45598
1.47937
1.49357
1.50441
1.51142
1.51046
1.5071
1.51098
1.53311
1.56608
1.60713
0.321145
1.58113
1.81171
1.75273
1.88991
2.07276
2.16771
2.18482
2.15761
2.10504
2.038
1.96465
1.88994
1.81654
1.74045
1.66622
1.59593
1.52946
1.46654
1.40609
1.3464
1.28871
1.23251
1.17826
1.12621
1.1398
1.15441
1.16792
1.18141
1.19672
1.21496
1.23483
1.24734
1.2239
1.20292
1.28074
1.40704
1.49481
1.54125
1.56517
1.57867
1.58568
1.58205
1.57094
1.56947
1.59512
1.63506
1.6852
0.589292
2.39411
2.27532
2.38828
2.58956
2.71838
2.72529
2.66839
2.58607
2.49311
2.39702
2.30227
2.21115
2.12464
2.0415
1.96314
1.88882
1.81809
1.75044
1.68331
1.61333
1.54496
1.47903
1.41532
1.35388
1.29266
1.23175
1.17325
1.17173
1.19057
1.21233
1.23812
1.25991
1.24739
1.20086
1.22371
1.33399
1.442
1.513
1.55
1.56754
1.57547
1.57397
1.5629
1.56452
1.59851
1.6484
1.71256
1.07854
2.86946
3.00926
3.24318
3.40372
3.40583
3.31233
3.19174
3.0697
2.94956
2.83368
2.72325
2.61864
2.51971
2.42592
2.33824
2.25425
2.17344
2.09541
2.01914
1.94328
1.8689
1.79714
1.72694
1.6581
1.58786
1.51465
1.44387
1.37603
1.31309
1.25671
1.2177
1.25127
1.26306
1.22175
1.18396
1.22765
1.30696
1.38105
1.42811
1.45347
1.47194
1.4854
1.49538
1.52323
1.57752
1.63984
1.71209
1.11792
3.54938
3.83458
4.04165
4.07493
3.98352
3.84967
3.71518
3.58682
3.46459
3.34812
3.23689
3.13012
3.0272
2.92788
2.83432
2.74155
2.64933
2.55777
2.46684
2.37646
2.28717
2.20098
2.11592
2.03192
1.94856
1.86579
1.78537
1.70819
1.63611
1.57043
1.51059
1.45527
1.39461
1.30313
1.20158
1.16203
1.19209
1.2383
1.28148
1.32026
1.35924
1.3992
1.43449
1.48259
1.54683
1.60446
1.66839
0.451117
2.27324
4.30292
4.29174
4.21027
4.14164
4.0625
3.98653
3.91503
3.84698
3.78118
3.71622
3.65036
3.5822
3.51032
3.43367
3.35132
3.26291
3.16871
3.06952
2.96642
2.8606
2.75683
2.65119
2.5444
2.43784
2.33289
2.2308
2.13305
2.04211
1.95908
1.88306
1.81469
1.75317
1.68281
1.59036
1.5169
1.46068
1.4193
1.39415
1.3876
1.38916
1.3954
1.39755
1.40802
1.43288
1.46747
1.51407
0.17312
0.177985
0.237349
4.00946
3.87862
3.85271
3.83291
3.82128
3.8174
3.81996
3.82711
3.83676
3.84645
3.85307
3.85441
3.84756
3.8303
3.80071
3.75767
3.70079
3.6305
3.54779
3.45393
3.35038
3.2389
3.12138
2.99996
2.87599
2.75189
2.63207
2.51998
2.41475
2.31872
2.23226
2.15857
2.08045
2.00899
1.9426
1.8874
1.85766
1.85584
1.86186
1.87323
1.88064
1.89341
1.91737
1.93563
1.98782
0.0737723
0.0717964
0.0700347
0.149677
3.28466
3.33496
3.39891
3.47427
3.55769
3.64395
3.7277
3.80232
3.86136
3.89966
3.91416
3.90493
3.87526
3.83084
3.7794
3.72865
3.68581
3.65586
3.64113
3.64082
3.65048
3.66269
3.66683
3.65173
3.60916
3.53435
3.43026
3.30522
3.1725
3.04092
2.9207
2.82842
2.74714
2.68012
2.63022
2.60273
2.59553
2.60093
2.61781
2.64713
2.68729
2.71597
2.72311
2.74179
6.24993
6.24999
6.24999
6.25
6.25
6.24999
6.24999
6.24999
6.24999
6.24998
6.24998
6.24997
6.24996
6.24995
6.24994
6.24993
6.24991
6.24989
6.24986
6.24982
6.24976
6.24969
6.2496
6.24949
6.24933
6.24912
6.24885
6.2485
6.24804
6.24745
6.2467
6.24576
6.24462
6.2432
6.24154
6.23967
6.23742
6.23504
6.2325
6.22993
6.22748
6.22541
6.22412
6.22437
6.22585
6.22579
6.22381
6.2178
6.24842
6.24973
6.24987
6.24991
6.24992
6.24993
6.24993
6.24993
6.24993
6.24992
6.2499
6.24986
6.24973
6.2495
6.24987
6.25
6.25
6.24999
6.24998
6.24996
6.24992
6.24986
6.24975
6.24955
6.2492
6.24857
6.24743
6.24508
6.23901
6.21205
0.122839
0.118589
0.107497
0.105269
0.105375
0.107261
0.111245
0.118171
0.129009
0.145275
0.172643
0.228511
0.211148
0.152516
0.166878
3.40478
3.39865
3.35781
3.29626
3.22639
3.15723
3.09443
3.03941
0.431409
0.23753
0.176001
0.149401
0.132763
0.112929
0.0766546
0.28221
0.565897
0.597612
0.723386
1.44006
4.16273
4.17255
4.17303
4.16608
4.15173
4.12579
4.07552
3.95812
3.79718
3.548
3.43496
3.48239
3.43691
3.36314
3.27927
3.18891
3.09386
2.99379
2.9544
2.85567
2.76441
2.70372
2.71311
2.8974
0.560163
0.463819
3.55626
3.70669
3.82997
3.87148
3.92488
3.95511
3.96102
3.94673
3.91323
3.85395
3.75051
3.56626
3.31762
3.11583
3.35656
3.61372
3.55378
3.42487
3.28085
3.12654
2.97111
2.8247
2.72809
2.64009
2.59389
2.6145
2.75501
3.1432
3.85647
0.584367
3.08965
3.1144
3.20978
3.28108
3.34519
3.38538
3.39835
3.38743
3.35494
3.29801
3.21433
3.09302
2.83965
2.55251
2.84291
3.40645
3.43568
3.27045
3.08733
2.90602
2.74501
2.61763
2.54746
2.52241
2.55487
2.6666
2.9093
3.37478
3.93676
0.603064
2.74772
2.62488
2.63789
2.67668
2.71963
2.75138
2.76713
2.76684
2.75252
2.72583
2.6968
2.68171
2.45982
2.07278
2.17151
2.76019
3.02663
2.93853
2.79692
2.65268
2.53489
2.45966
2.44034
2.47352
2.56414
2.72671
2.99218
3.38231
3.72226
0.554193
1.52537
2.2871
2.20675
2.18723
2.19117
2.20115
2.21153
2.2186
2.22322
2.23175
2.26711
2.35876
2.18061
1.70988
1.62117
2.04165
2.44577
2.49604
2.44739
2.3752
2.31853
2.29648
2.31881
2.38449
2.49245
2.64525
2.84825
3.09726
3.27754
0.485375
0.770267
1.56269
1.94437
1.86183
1.82038
1.8024
1.80061
1.80849
1.82608
1.8654
1.95985
1.21119
1.61584
1.44916
1.23684
1.4693
1.85706
2.00438
2.04466
2.04447
2.04336
2.06068
2.10417
2.1727
2.26174
2.36539
2.4787
2.61379
2.69489
0.426769
0.493005
0.620727
0.783706
0.954785
1.10089
1.16869
1.17548
1.12201
1.01635
0.854166
0.64505
0.489129
0.588036
1.27175
0.989854
1.08255
1.36688
1.5386
1.62692
1.67408
1.70855
1.74615
1.79291
1.84777
1.90597
1.9596
2.01468
2.07924
2.10879
0.398562
0.369435
0.376421
0.384249
0.387983
0.392039
0.388924
0.386842
0.380553
0.36836
0.349678
0.317489
0.278693
0.323729
0.819814
0.835823
0.844072
1.01061
1.15157
1.24696
1.31085
1.35907
1.40143
1.44224
1.48109
1.51465
1.54057
1.56549
1.59311
1.80953
0.429408
0.322738
0.281993
0.256478
0.236813
0.221262
0.209526
0.203227
0.199277
0.195653
0.190583
0.18224
0.174077
0.19969
0.497312
0.734529
0.689399
0.817094
0.94007
1.00443
1.03706
1.05497
1.08002
1.11263
1.13961
1.15912
1.17299
1.18436
1.28518
1.50864
0.601862
0.369392
0.269894
0.217569
0.182325
0.155405
0.139893
0.130203
0.124535
0.121506
0.120161
0.121156
0.128059
0.141593
0.372458
0.621736
0.585287
0.726571
0.842536
0.908389
0.944212
0.963865
0.975537
0.9836
0.990098
0.995519
1.00073
1.0103
1.11313
1.18331
1.24341
0.653279
0.398157
0.273393
0.203156
0.160257
0.134535
0.117949
0.107893
0.102751
0.101838
0.107966
0.130717
0.141658
0.332878
0.453215
0.434681
0.624825
0.732901
0.796745
0.832472
0.851518
0.861353
0.866175
0.868153
0.868239
0.866806
0.933791
0.978679
0.98342
2.26303
1.98137
1.12552
0.703221
0.471003
0.347792
0.266295
0.213835
0.181552
0.164345
0.160585
0.180553
0.269434
0.287593
0.37208
0.383186
0.31846
0.388053
0.611746
0.67387
0.709048
0.727477
0.735704
0.737905
0.736432
0.732484
0.766258
0.809938
0.817004
0.801071
1.68787
1.609
1.54315
1.48732
1.43991
1.3968
1.35745
1.32153
1.10841
0.970606
0.934577
1.09657
1.16224
1.07139
0.523273
0.368809
0.273892
0.276637
0.330349
0.457852
0.572369
0.591045
0.598979
0.599924
0.596388
0.605119
0.64566
0.655354
0.642854
0.619778
1.21608
1.16918
1.12829
1.09198
1.0587
1.02797
0.999401
0.972659
0.947463
0.923539
0.899796
0.873522
0.836637
0.767703
0.621525
0.410412
0.274419
0.245402
0.244989
0.267133
0.322334
0.396302
0.449751
0.451069
0.447385
0.480847
0.492268
0.484458
0.466038
0.44911
0.864382
0.833406
0.805665
0.780295
0.756866
0.735089
0.714716
0.69553
0.677336
0.659938
0.642515
0.623125
0.596975
0.550115
0.474895
0.380849
0.319747
0.264909
0.237538
0.226467
0.219784
0.235605
0.259355
0.286748
0.31759
0.329652
0.332845
0.330038
0.3195
0.332259
0.612102
0.5909
0.57167
0.554003
0.537649
0.522415
0.508137
0.494669
0.481878
0.469631
0.457351
0.443702
0.425878
0.394847
0.352883
0.302892
0.270174
0.250516
0.236946
0.227121
0.220046
0.214792
0.210541
0.228485
0.256822
0.268791
0.267213
0.258127
0.259659
0.262507
0.433231
0.418636
0.405338
0.393103
0.381761
0.371183
0.361257
0.351884
0.342974
0.334435
0.325867
0.316357
0.304282
0.284389
0.258845
0.231843
0.212523
0.199336
0.189576
0.182046
0.176205
0.171678
0.178681
0.20107
0.211637
0.21128
0.204218
0.197851
0.20303
0.19877
0.306704
0.296683
0.287526
0.279088
0.271256
0.263942
0.25707
0.250574
0.244391
0.238461
0.232506
0.225905
0.217731
0.20504
0.18882
0.173205
0.161446
0.15258
0.145564
0.139842
0.135138
0.136865
0.15313
0.162135
0.162872
0.157938
0.150478
0.153585
0.151889
0.149397
0.217193
0.210338
0.204057
0.19826
0.192871
0.187831
0.183089
0.1786
0.174323
0.170216
0.16609
0.161522
0.15599
0.147891
0.13742
0.127677
0.120092
0.113999
0.108947
0.104685
0.105181
0.115614
0.122303
0.123745
0.12066
0.11514
0.114451
0.114756
0.111028
0.112164
0.153839
0.149167
0.144876
0.140907
0.137211
0.133749
0.130487
0.127396
0.124446
0.12161
0.11876
0.115608
0.111864
0.106676
0.0998875
0.0934795
0.0883386
0.0840637
0.0804245
0.0821274
0.0878672
0.0919929
0.0931983
0.0914484
0.0876605
0.0845477
0.0860289
0.0839409
0.083496
0.0823702
0.108981
0.105809
0.102887
0.100179
0.0976537
0.0952838
0.0930473
0.0909242
0.0888959
0.086944
0.0849807
0.082813
0.0802788
0.0769347
0.0725326
0.0682076
0.0646227
0.0640166
0.0654071
0.0676528
0.0695446
0.0700769
0.0688957
0.0663466
0.0630845
0.0642283
0.0632685
0.0617791
0.0617817
0.0610228
0.0772104
0.0750644
0.0730825
0.0712418
0.0695216
0.0679046
0.0663762
0.0649229
0.0635326
0.0621932
0.0608454
0.0593595
0.0576442
0.0554716
0.0526144
0.0524447
0.054014
0.0529151
0.052833
0.0530404
0.0528426
0.0518289
0.0500059
0.0476791
0.0477006
0.0475336
0.0459451
0.0461702
0.0450582
0.0452521
0.0547053
0.0532586
0.0519192
0.0506723
0.0495048
0.0484053
0.0473642
0.0463727
0.0454228
0.0445067
0.0435846
0.0425694
0.0414088
0.0399857
0.0381251
0.0418982
0.0429526
0.0416338
0.040802
0.0400431
0.0390276
0.0376287
0.035929
0.0353071
0.0355062
0.034594
0.0343507
0.0338862
0.0337226
0.0330937
0.0387616
0.0377898
0.0368879
0.0360464
0.0352568
0.0345118
0.033805
0.0331309
0.0324841
0.0318596
0.0312309
0.0305398
0.029755
0.0288156
0.0275975
0.032151
0.0327467
0.0315015
0.0304655
0.029443
0.0283039
0.0270286
0.0261823
0.0264412
0.0259196
0.0253816
0.0253315
0.0249627
0.0247917
0.0247348
0.0274652
0.026815
0.02621
0.0256441
0.0251121
0.0246091
0.0241311
0.0236743
0.0232355
0.0228113
0.0223842
0.0219153
0.0213854
0.0207612
0.0203977
0.0239258
0.0241993
0.0231736
0.022227
0.0212846
0.0203076
0.0195331
0.019693
0.0193693
0.0186983
0.0188346
0.0183926
0.0184529
0.0182818
0.0180957
0.0194612
0.0190278
0.0186235
0.0182446
0.0178874
0.0175491
0.017227
0.0169187
0.0166221
0.0163351
0.016046
0.015729
0.0153717
0.0149549
0.0151785
0.0174268
0.0175107
0.0167342
0.0159815
0.0152337
0.0146982
0.0147061
0.0144607
0.0139927
0.0139624
0.0137215
0.0136624
0.0134161
0.0134458
0.0134009
0.0137898
0.0135021
0.0132331
0.0129803
0.0127415
0.0125149
0.0122987
0.0120915
0.0118918
0.0116983
0.0115034
0.0112898
0.0110496
0.0107705
0.0111385
0.0125182
0.0125073
0.0119497
0.011395
0.011152
0.0110263
0.0107999
0.0104552
0.0103441
0.0102097
0.0100816
0.00997477
0.00994345
0.00985789
0.00977575
0.00977106
0.00958093
0.0094027
0.0092348
0.00907587
0.00892469
0.00878021
0.00864147
0.0085076