/*--------------------------------*- C++ -*----------------------------------*\
| =========                 |                                                 |
| \\      /  F ield         | OpenFOAM: The Open Source CFD Toolbox           |
|  \\    /   O peration     | Version:  2212                                  |
|   \\  /    A nd           | Website:  www.openfoam.com                      |
|    \\/     M anipulation  |                                                 |
\*---------------------------------------------------------------------------*/
FoamFile
{
    version     2.0;
    format      ascii;
    arch        "LSB;label=32;scalar=64";
    class       volScalarField;
    location    "10000";
    object      k;
}
// * * * * * * * * * * * * * * * * * * * * * * * * * * * * * * * * * * * * * //

dimensions      [0 2 -2 0 0 0 0];

internalField   nonuniform List<scalar> 
18080
(
1.15621e-05
1.15853e-05
1.16655e-05
1.18074e-05
1.2004e-05
1.22615e-05
1.25865e-05
1.29862e-05
1.3468e-05
1.40394e-05
1.47088e-05
1.54842e-05
1.63734e-05
1.73835e-05
1.85206e-05
1.97898e-05
2.11948e-05
2.27376e-05
2.44187e-05
2.6237e-05
2.81902e-05
3.02745e-05
3.2485e-05
3.48153e-05
3.72567e-05
3.97968e-05
4.24189e-05
4.51005e-05
4.78139e-05
5.05247e-05
5.31947e-05
5.57853e-05
5.82584e-05
6.05792e-05
6.27209e-05
6.46614e-05
6.6389e-05
6.78984e-05
6.91925e-05
7.02809e-05
7.1179e-05
7.19067e-05
7.24864e-05
7.29416e-05
7.32943e-05
7.35642e-05
7.37702e-05
7.39277e-05
1.15624e-05
1.15849e-05
1.16587e-05
1.17941e-05
1.19812e-05
1.22252e-05
1.25319e-05
1.29072e-05
1.33574e-05
1.38892e-05
1.451e-05
1.5228e-05
1.60516e-05
1.69897e-05
1.80515e-05
1.92462e-05
2.05829e-05
2.20704e-05
2.37167e-05
2.55283e-05
2.75095e-05
2.9662e-05
3.19832e-05
3.44658e-05
3.70966e-05
3.98556e-05
4.27159e-05
4.56437e-05
4.85993e-05
5.15381e-05
5.44132e-05
5.71781e-05
5.97893e-05
6.22093e-05
6.44081e-05
6.63657e-05
6.80718e-05
6.95261e-05
7.07377e-05
7.17232e-05
7.25054e-05
7.31106e-05
7.35669e-05
7.39022e-05
7.41435e-05
7.43163e-05
7.44379e-05
7.45231e-05
1.15619e-05
1.15828e-05
1.16529e-05
1.17858e-05
1.197e-05
1.22108e-05
1.25138e-05
1.28852e-05
1.33314e-05
1.3859e-05
1.44753e-05
1.51884e-05
1.60066e-05
1.69382e-05
1.7992e-05
1.91762e-05
2.04992e-05
2.19682e-05
2.35898e-05
2.53685e-05
2.73066e-05
2.94035e-05
3.16545e-05
3.40505e-05
3.65772e-05
3.92149e-05
4.1938e-05
4.4716e-05
4.75144e-05
5.02945e-05
5.30168e-05
5.56423e-05
5.81341e-05
6.04592e-05
6.25912e-05
6.45098e-05
6.62037e-05
6.76693e-05
6.89116e-05
6.99425e-05
7.07802e-05
7.14472e-05
7.19683e-05
7.23686e-05
7.26719e-05
7.29001e-05
7.3071e-05
7.32002e-05
1.1562e-05
1.1583e-05
1.16529e-05
1.17851e-05
1.19683e-05
1.22075e-05
1.25088e-05
1.28784e-05
1.33224e-05
1.38472e-05
1.44602e-05
1.51694e-05
1.59828e-05
1.69089e-05
1.79563e-05
1.91333e-05
2.04482e-05
2.19088e-05
2.35216e-05
2.52917e-05
2.7222e-05
2.93125e-05
3.15593e-05
3.39542e-05
3.64834e-05
3.91277e-05
4.18618e-05
4.46551e-05
4.74723e-05
5.02739e-05
5.30188e-05
5.56665e-05
5.81783e-05
6.05196e-05
6.26627e-05
6.45868e-05
6.628e-05
6.77392e-05
6.89698e-05
6.99847e-05
7.08033e-05
7.14489e-05
7.19475e-05
7.23251e-05
7.26066e-05
7.28148e-05
7.29678e-05
7.3081e-05
1.15622e-05
1.15831e-05
1.16523e-05
1.1784e-05
1.19665e-05
1.22046e-05
1.25042e-05
1.28721e-05
1.33144e-05
1.38373e-05
1.4448e-05
1.51545e-05
1.59649e-05
1.68876e-05
1.7931e-05
1.91036e-05
2.04134e-05
2.18681e-05
2.34741e-05
2.52364e-05
2.71575e-05
2.92373e-05
3.14716e-05
3.38519e-05
3.63642e-05
3.89892e-05
4.17017e-05
4.44711e-05
4.72628e-05
5.00378e-05
5.27559e-05
5.53777e-05
5.78654e-05
6.01853e-05
6.23105e-05
6.42206e-05
6.59039e-05
6.73572e-05
6.85855e-05
6.96014e-05
7.04236e-05
7.1075e-05
7.15809e-05
7.19668e-05
7.2257e-05
7.24732e-05
7.26332e-05
7.27529e-05
1.15627e-05
1.1584e-05
1.16535e-05
1.17851e-05
1.19673e-05
1.22048e-05
1.25037e-05
1.28701e-05
1.33111e-05
1.38325e-05
1.44415e-05
1.51458e-05
1.59537e-05
1.68733e-05
1.79132e-05
1.90817e-05
2.03869e-05
2.18363e-05
2.34364e-05
2.51921e-05
2.71061e-05
2.91782e-05
3.14044e-05
3.37762e-05
3.62801e-05
3.88969e-05
4.16015e-05
4.43638e-05
4.71493e-05
4.99194e-05
5.26338e-05
5.52531e-05
5.77395e-05
6.00591e-05
6.21849e-05
6.40961e-05
6.57808e-05
6.72355e-05
6.84651e-05
6.94822e-05
7.03054e-05
7.09576e-05
7.14642e-05
7.18507e-05
7.21413e-05
7.23579e-05
7.25181e-05
7.26378e-05
1.15635e-05
1.15855e-05
1.16557e-05
1.17875e-05
1.19697e-05
1.22069e-05
1.25054e-05
1.2871e-05
1.33104e-05
1.38306e-05
1.44382e-05
1.51408e-05
1.59465e-05
1.68637e-05
1.79007e-05
1.90658e-05
2.03671e-05
2.18122e-05
2.34074e-05
2.51576e-05
2.70657e-05
2.91312e-05
3.13502e-05
3.37144e-05
3.62103e-05
3.88186e-05
4.15147e-05
4.42684e-05
4.70456e-05
4.98078e-05
5.2515e-05
5.51282e-05
5.76095e-05
5.99255e-05
6.2049e-05
6.39593e-05
6.56445e-05
6.7101e-05
6.83337e-05
6.93548e-05
7.01828e-05
7.08407e-05
7.13534e-05
7.17465e-05
7.20439e-05
7.22666e-05
7.24323e-05
7.25571e-05
1.15648e-05
1.15881e-05
1.16597e-05
1.17921e-05
1.19746e-05
1.2212e-05
1.25104e-05
1.28759e-05
1.33145e-05
1.38336e-05
1.44401e-05
1.51414e-05
1.59456e-05
1.68608e-05
1.78955e-05
1.9058e-05
2.03562e-05
2.17978e-05
2.3389e-05
2.51349e-05
2.70381e-05
2.90985e-05
3.13121e-05
3.36707e-05
3.61609e-05
3.87638e-05
4.14548e-05
4.42041e-05
4.69778e-05
4.97375e-05
5.24436e-05
5.50571e-05
5.75402e-05
5.98594e-05
6.19876e-05
6.39036e-05
6.55957e-05
6.70598e-05
6.83006e-05
6.93303e-05
7.01672e-05
7.08339e-05
7.13556e-05
7.17576e-05
7.20635e-05
7.22938e-05
7.24663e-05
7.25972e-05
1.15669e-05
1.1592e-05
1.1666e-05
1.17996e-05
1.1983e-05
1.2221e-05
1.25198e-05
1.28855e-05
1.33241e-05
1.38424e-05
1.44485e-05
1.51491e-05
1.59523e-05
1.68663e-05
1.78995e-05
1.90601e-05
2.03562e-05
2.17953e-05
2.33839e-05
2.51268e-05
2.70269e-05
2.9084e-05
3.12943e-05
3.36496e-05
3.61368e-05
3.87371e-05
4.14261e-05
4.41743e-05
4.6948e-05
4.9709e-05
5.24178e-05
5.50355e-05
5.75245e-05
5.98509e-05
6.19877e-05
6.39135e-05
6.56162e-05
6.70919e-05
6.83447e-05
6.93867e-05
7.02361e-05
7.09152e-05
7.14492e-05
7.18634e-05
7.21808e-05
7.24215e-05
7.26031e-05
7.27421e-05
1.15702e-05
1.15981e-05
1.16759e-05
1.18114e-05
1.19963e-05
1.22355e-05
1.25353e-05
1.29018e-05
1.33411e-05
1.38596e-05
1.44654e-05
1.51662e-05
1.59693e-05
1.6883e-05
1.79157e-05
1.90756e-05
2.03709e-05
2.18091e-05
2.33966e-05
2.51385e-05
2.70375e-05
2.90937e-05
3.13034e-05
3.36586e-05
3.61461e-05
3.87477e-05
4.1439e-05
4.41908e-05
4.69696e-05
4.97374e-05
5.24546e-05
5.50825e-05
5.75834e-05
5.99232e-05
6.20748e-05
6.40164e-05
6.57358e-05
6.72285e-05
6.84985e-05
6.95576e-05
7.04237e-05
7.11191e-05
7.16689e-05
7.20981e-05
7.24298e-05
7.26829e-05
7.28754e-05
7.30241e-05
1.15753e-05
1.16075e-05
1.16911e-05
1.18294e-05
1.20165e-05
1.22577e-05
1.25592e-05
1.29273e-05
1.3368e-05
1.38879e-05
1.44943e-05
1.51961e-05
1.60002e-05
1.69148e-05
1.79483e-05
1.91091e-05
2.04052e-05
2.18443e-05
2.34329e-05
2.51761e-05
2.70768e-05
2.91352e-05
3.13477e-05
3.37066e-05
3.6199e-05
3.88066e-05
4.15055e-05
4.42664e-05
4.70564e-05
4.98371e-05
5.25693e-05
5.5214e-05
5.77335e-05
6.00934e-05
6.22663e-05
6.42298e-05
6.59717e-05
6.74869e-05
6.87791e-05
6.98598e-05
7.07466e-05
7.14619e-05
7.20305e-05
7.24776e-05
7.28257e-05
7.30929e-05
7.32975e-05
7.34569e-05
1.15832e-05
1.16216e-05
1.17137e-05
1.18559e-05
1.20463e-05
1.22902e-05
1.25944e-05
1.29649e-05
1.34081e-05
1.39304e-05
1.45388e-05
1.52423e-05
1.60486e-05
1.69656e-05
1.80015e-05
1.91649e-05
2.04639e-05
2.19062e-05
2.34985e-05
2.5246e-05
2.71519e-05
2.92163e-05
3.1436e-05
3.38035e-05
3.6306e-05
3.89255e-05
4.16383e-05
4.44153e-05
4.72236e-05
5.00249e-05
5.27798e-05
5.54492e-05
5.79951e-05
6.03826e-05
6.25842e-05
6.45767e-05
6.63475e-05
6.78912e-05
6.9211e-05
7.0318e-05
7.12296e-05
7.19681e-05
7.25582e-05
7.30255e-05
7.33919e-05
7.36744e-05
7.38917e-05
7.4062e-05
1.15953e-05
1.16428e-05
1.17465e-05
1.18936e-05
1.2088e-05
1.23357e-05
1.26433e-05
1.30172e-05
1.34638e-05
1.39896e-05
1.46016e-05
1.53079e-05
1.6118e-05
1.7039e-05
1.80792e-05
1.92473e-05
2.05516e-05
2.19999e-05
2.35991e-05
2.53545e-05
2.72695e-05
2.93446e-05
3.15767e-05
3.39585e-05
3.64776e-05
3.91161e-05
4.18504e-05
4.46515e-05
4.74866e-05
5.03172e-05
5.31037e-05
5.58067e-05
5.83878e-05
6.08114e-05
6.30496e-05
6.50786e-05
6.68851e-05
6.84633e-05
6.98158e-05
7.09535e-05
7.18936e-05
7.26582e-05
7.32722e-05
7.37613e-05
7.4147e-05
7.4445e-05
7.46749e-05
7.48557e-05
1.16134e-05
1.16737e-05
1.17863e-05
1.194e-05
1.21399e-05
1.23926e-05
1.2705e-05
1.30837e-05
1.35351e-05
1.40658e-05
1.46829e-05
1.53943e-05
1.62092e-05
1.71361e-05
1.81829e-05
1.93582e-05
2.06706e-05
2.2128e-05
2.37377e-05
2.55052e-05
2.74341e-05
2.95252e-05
3.17758e-05
3.41787e-05
3.67218e-05
3.93874e-05
4.21519e-05
4.49864e-05
4.7858e-05
5.07278e-05
5.35558e-05
5.63024e-05
5.89284e-05
6.13973e-05
6.36809e-05
6.57542e-05
6.76036e-05
6.92223e-05
7.06129e-05
7.17856e-05
7.27575e-05
7.35506e-05
7.41901e-05
7.4702e-05
7.51073e-05
7.54204e-05
7.56618e-05
7.58516e-05
1.16393e-05
1.17163e-05
1.18379e-05
1.19991e-05
1.22054e-05
1.24641e-05
1.27823e-05
1.31669e-05
1.36244e-05
1.41613e-05
1.4785e-05
1.55032e-05
1.63245e-05
1.72594e-05
1.83149e-05
1.94999e-05
2.08233e-05
2.22932e-05
2.39172e-05
2.57012e-05
2.76491e-05
2.97621e-05
3.20377e-05
3.44691e-05
3.70444e-05
3.97461e-05
4.25506e-05
4.54288e-05
4.83476e-05
5.12676e-05
5.41481e-05
5.69488e-05
5.96298e-05
6.21535e-05
6.44912e-05
6.66165e-05
6.85155e-05
7.01807e-05
7.16141e-05
7.28256e-05
7.38323e-05
7.46561e-05
7.53224e-05
7.58577e-05
7.62827e-05
7.661e-05
7.68614e-05
7.70583e-05
1.16677e-05
1.17653e-05
1.18957e-05
1.20643e-05
1.22773e-05
1.25425e-05
1.28675e-05
1.32589e-05
1.37236e-05
1.42681e-05
1.48997e-05
1.56263e-05
1.64564e-05
1.74e-05
1.84663e-05
1.96634e-05
2.10005e-05
2.24862e-05
2.41284e-05
2.59333e-05
2.79053e-05
3.0046e-05
3.23534e-05
3.48209e-05
3.74368e-05
4.01837e-05
4.30378e-05
4.59699e-05
4.89467e-05
5.19281e-05
5.48727e-05
5.77393e-05
6.04867e-05
6.30758e-05
6.54773e-05
6.76635e-05
6.96197e-05
7.13381e-05
7.28199e-05
7.40751e-05
7.51204e-05
7.5978e-05
7.66736e-05
7.72341e-05
7.76796e-05
7.80209e-05
7.82812e-05
7.84836e-05
1.16844e-05
1.17979e-05
1.19383e-05
1.21158e-05
1.23372e-05
1.26109e-05
1.29444e-05
1.33448e-05
1.38186e-05
1.43726e-05
1.50139e-05
1.57508e-05
1.65917e-05
1.75463e-05
1.86256e-05
1.98373e-05
2.11909e-05
2.26955e-05
2.43594e-05
2.61894e-05
2.81905e-05
3.03645e-05
3.27098e-05
3.52205e-05
3.7885e-05
4.06863e-05
4.36003e-05
4.65974e-05
4.96434e-05
5.26972e-05
5.57167e-05
5.86601e-05
6.14849e-05
6.41508e-05
6.66272e-05
6.88846e-05
7.09082e-05
7.26889e-05
7.42276e-05
7.55341e-05
7.66249e-05
7.75223e-05
7.82523e-05
7.88423e-05
7.93115e-05
7.9668e-05
7.99371e-05
8.01439e-05
1.16992e-05
1.18235e-05
1.19737e-05
1.21605e-05
1.23913e-05
1.26748e-05
1.30187e-05
1.34298e-05
1.39146e-05
1.44799e-05
1.51328e-05
1.58818e-05
1.67356e-05
1.77036e-05
1.87975e-05
2.00263e-05
2.13992e-05
2.2926e-05
2.46154e-05
2.64748e-05
2.85099e-05
3.07233e-05
3.31142e-05
3.56774e-05
3.84019e-05
4.12705e-05
4.42589e-05
4.73366e-05
5.04676e-05
5.36099e-05
5.67206e-05
5.97559e-05
6.2672e-05
6.5427e-05
6.79897e-05
7.0329e-05
7.24291e-05
7.42804e-05
7.58832e-05
7.7247e-05
7.83884e-05
7.93296e-05
8.0097e-05
8.07187e-05
8.12126e-05
8.15837e-05
8.18596e-05
8.20679e-05
1.1711e-05
1.1844e-05
1.20026e-05
1.21983e-05
1.2439e-05
1.27336e-05
1.30896e-05
1.35132e-05
1.40109e-05
1.45892e-05
1.52555e-05
1.60183e-05
1.68865e-05
1.787e-05
1.89807e-05
2.02287e-05
2.16235e-05
2.31752e-05
2.48935e-05
2.67865e-05
2.88611e-05
3.11209e-05
3.35656e-05
3.61898e-05
3.89826e-05
4.1927e-05
4.4999e-05
4.81678e-05
5.13988e-05
5.46482e-05
5.78687e-05
6.10127e-05
6.4035e-05
6.68929e-05
6.95539e-05
7.19853e-05
7.41712e-05
7.6101e-05
7.77748e-05
7.9202e-05
8.03991e-05
8.13882e-05
8.21963e-05
8.2852e-05
8.33718e-05
8.3757e-05
8.40383e-05
8.42457e-05
1.17184e-05
1.18572e-05
1.20222e-05
1.2226e-05
1.24773e-05
1.27846e-05
1.31544e-05
1.35924e-05
1.41046e-05
1.46975e-05
1.53785e-05
1.61564e-05
1.70405e-05
1.80411e-05
1.91705e-05
2.04394e-05
2.18578e-05
2.34368e-05
2.51871e-05
2.71182e-05
2.92366e-05
3.15462e-05
3.40474e-05
3.6736e-05
3.96018e-05
4.26279e-05
4.57901e-05
4.90566e-05
5.23917e-05
5.57504e-05
5.90866e-05
6.23536e-05
6.54997e-05
6.84759e-05
7.12466e-05
7.37809e-05
7.60624e-05
7.80798e-05
7.98332e-05
8.13321e-05
8.25926e-05
8.36372e-05
8.44928e-05
8.51886e-05
8.57392e-05
8.61413e-05
8.64289e-05
8.66354e-05
1.17208e-05
1.18619e-05
1.2031e-05
1.22422e-05
1.25049e-05
1.28266e-05
1.32121e-05
1.36662e-05
1.41943e-05
1.4803e-05
1.54999e-05
1.62939e-05
1.71947e-05
1.82134e-05
1.93628e-05
2.06536e-05
2.20971e-05
2.37057e-05
2.549e-05
2.74597e-05
2.96228e-05
3.19845e-05
3.45461e-05
3.73039e-05
4.02479e-05
4.33615e-05
4.66202e-05
4.99914e-05
5.34386e-05
5.69155e-05
6.03741e-05
6.3765e-05
6.70378e-05
7.01437e-05
7.30423e-05
7.56937e-05
7.80802e-05
8.01934e-05
8.20333e-05
8.36101e-05
8.49402e-05
8.60461e-05
8.69552e-05
8.76965e-05
8.82821e-05
8.87036e-05
8.89986e-05
8.92041e-05
1.17181e-05
1.1858e-05
1.20289e-05
1.22473e-05
1.25229e-05
1.28611e-05
1.32641e-05
1.37356e-05
1.42807e-05
1.49061e-05
1.56195e-05
1.643e-05
1.7348e-05
1.8386e-05
1.95561e-05
2.08697e-05
2.23393e-05
2.39771e-05
2.57952e-05
2.78045e-05
3.00139e-05
3.24293e-05
3.50526e-05
3.78808e-05
4.09045e-05
4.41073e-05
4.74646e-05
5.09429e-05
5.45043e-05
5.81016e-05
6.16782e-05
6.51919e-05
6.8595e-05
7.18279e-05
7.48534e-05
7.7633e-05
8.01416e-05
8.23586e-05
8.42921e-05
8.59533e-05
8.73597e-05
8.85345e-05
8.95052e-05
9.03006e-05
9.09288e-05
9.13747e-05
9.16799e-05
9.18861e-05
1.17109e-05
1.18463e-05
1.20172e-05
1.22433e-05
1.25341e-05
1.2891e-05
1.33132e-05
1.3803e-05
1.43658e-05
1.50083e-05
1.57382e-05
1.65655e-05
1.75017e-05
1.85595e-05
1.97503e-05
2.10864e-05
2.25811e-05
2.42481e-05
2.61002e-05
2.8149e-05
3.04043e-05
3.28729e-05
3.55576e-05
3.84561e-05
4.15565e-05
4.48426e-05
4.83e-05
5.18868e-05
5.55636e-05
5.92824e-05
6.29924e-05
6.66392e-05
7.01677e-05
7.35257e-05
7.66733e-05
7.95691e-05
8.21938e-05
8.45326e-05
8.65714e-05
8.83225e-05
8.98104e-05
9.10597e-05
9.20983e-05
9.2956e-05
9.36338e-05
9.41083e-05
9.44258e-05
9.46338e-05
1.17004e-05
1.18288e-05
1.19985e-05
1.22338e-05
1.25425e-05
1.29202e-05
1.33625e-05
1.38711e-05
1.44516e-05
1.51111e-05
1.58576e-05
1.67022e-05
1.76565e-05
1.87328e-05
1.99429e-05
2.13007e-05
2.28202e-05
2.45157e-05
2.64006e-05
2.84877e-05
3.07875e-05
3.33078e-05
3.60456e-05
3.90059e-05
4.21872e-05
4.5567e-05
4.91209e-05
5.28137e-05
5.66039e-05
6.04431e-05
6.42794e-05
6.80552e-05
7.17126e-05
7.5199e-05
7.84717e-05
8.14896e-05
8.42306e-05
8.66747e-05
8.88201e-05
9.06716e-05
9.22435e-05
9.35723e-05
9.46879e-05
9.5617e-05
9.6353e-05
9.68615e-05
9.71946e-05
9.74068e-05
1.1688e-05
1.18073e-05
1.19753e-05
1.22218e-05
1.2551e-05
1.29508e-05
1.34135e-05
1.39407e-05
1.45384e-05
1.52143e-05
1.59773e-05
1.68382e-05
1.78085e-05
1.89013e-05
2.01301e-05
2.15089e-05
2.30523e-05
2.47747e-05
2.669e-05
2.88101e-05
3.11472e-05
3.37113e-05
3.65063e-05
3.95388e-05
4.27952e-05
4.62599e-05
4.99087e-05
5.37057e-05
5.76072e-05
6.15647e-05
6.55256e-05
6.94283e-05
7.32132e-05
7.6828e-05
8.02262e-05
8.33661e-05
8.62227e-05
8.87727e-05
9.10136e-05
9.29592e-05
9.46272e-05
9.60388e-05
9.72364e-05
9.82447e-05
9.90468e-05
9.95931e-05
9.99442e-05
0.000100163
1.16748e-05
1.178e-05
1.19461e-05
1.2206e-05
1.25577e-05
1.29801e-05
1.34624e-05
1.40072e-05
1.46215e-05
1.53131e-05
1.60909e-05
1.69662e-05
1.79512e-05
1.90592e-05
2.0304e-05
2.17002e-05
2.32626e-05
2.50064e-05
2.69475e-05
2.91003e-05
3.14768e-05
3.40878e-05
3.69421e-05
4.00356e-05
4.33618e-05
4.69058e-05
5.06437e-05
5.45395e-05
5.85459e-05
6.26157e-05
6.66955e-05
7.07197e-05
7.46271e-05
7.83674e-05
8.18884e-05
8.51492e-05
8.81197e-05
9.07727e-05
9.31062e-05
9.51367e-05
9.68911e-05
9.83922e-05
9.96777e-05
0.000100777
0.000101674
0.000102278
0.000102658
0.000102892
1.16527e-05
1.17379e-05
1.19049e-05
1.21822e-05
1.25589e-05
1.30036e-05
1.35045e-05
1.40657e-05
1.46951e-05
1.54002e-05
1.6191e-05
1.7079e-05
1.80769e-05
1.91979e-05
2.04564e-05
2.18676e-05
2.34477e-05
2.52129e-05
2.7179e-05
2.93609e-05
3.17762e-05
3.44323e-05
3.73345e-05
4.04838e-05
4.38742e-05
4.74912e-05
5.13117e-05
5.52994e-05
5.94037e-05
6.35789e-05
6.77711e-05
7.19108e-05
7.59354e-05
7.97979e-05
8.34391e-05
8.68193e-05
8.99016e-05
9.26547e-05
9.50776e-05
9.71908e-05
9.90265e-05
0.000100622
0.000102006
0.000103306
0.000104845
0.00010581
0.000106316
0.000106587
1.16329e-05
1.17017e-05
1.18714e-05
1.21687e-05
1.25709e-05
1.30365e-05
1.35542e-05
1.41306e-05
1.47729e-05
1.549e-05
1.6292e-05
1.71908e-05
1.81992e-05
1.93309e-05
2.06013e-05
2.20261e-05
2.36219e-05
2.54056e-05
2.73941e-05
2.96082e-05
3.20592e-05
3.47583e-05
3.77136e-05
4.09276e-05
4.43955e-05
4.81036e-05
5.20297e-05
5.61372e-05
6.03717e-05
6.46884e-05
6.90324e-05
7.33297e-05
7.75163e-05
8.15477e-05
8.53581e-05
8.89071e-05
9.21511e-05
9.50547e-05
9.76189e-05
9.98699e-05
0.000101848
0.000103595
0.000105281
0.000110171
0.000125405
0.000132457
0.000133822
0.000134847
1.16184e-05
1.16737e-05
1.18476e-05
1.21679e-05
1.25967e-05
1.3082e-05
1.36146e-05
1.42033e-05
1.4856e-05
1.5582e-05
1.63921e-05
1.72989e-05
1.83171e-05
1.94646e-05
2.07632e-05
2.22406e-05
2.39324e-05
2.58839e-05
2.81529e-05
3.08031e-05
3.39e-05
3.75099e-05
4.16892e-05
4.64768e-05
5.18848e-05
5.78963e-05
6.44571e-05
7.14676e-05
7.8868e-05
8.64929e-05
9.4198e-05
0.000101894
0.000109468
0.000116738
0.000123835
0.000130464
0.000136791
0.000142725
0.000148335
0.000153772
0.000159218
0.00016497
0.000173341
0.000272878
0.00057972
0.000703415
0.000734737
0.000770553
1.16075e-05
1.16524e-05
1.18322e-05
1.21956e-05
1.26706e-05
1.31881e-05
1.37412e-05
1.43482e-05
1.5021e-05
1.57782e-05
1.66563e-05
1.77336e-05
1.91765e-05
2.13117e-05
2.47284e-05
3.03938e-05
3.97394e-05
5.46815e-05
7.75315e-05
0.000110772
0.000156794
0.000217513
0.000294036
0.000386497
0.000493843
0.000614127
0.00074413
0.000879555
0.00102039
0.00116017
0.00129493
0.00142522
0.00154967
0.00166246
0.00177477
0.00187528
0.00197552
0.00207433
0.00217634
0.00228779
0.00241518
0.00257233
0.00281773
0.00480909
0.0101699
0.0128778
0.0147981
0.0174427
1.16001e-05
1.16378e-05
1.18285e-05
1.23997e-05
1.3118e-05
1.38195e-05
1.44893e-05
1.52976e-05
1.64772e-05
1.876e-05
2.41714e-05
3.75982e-05
6.93262e-05
0.000138601
0.000277111
0.000530837
0.000957142
0.0016172
0.00256531
0.00383799
0.00544916
0.00738724
0.00961795
0.0120901
0.0147379
0.0174952
0.0202811
0.0230085
0.0257216
0.0282853
0.0306381
0.032831
0.0348526
0.0366007
0.0383873
0.039941
0.0415693
0.0433459
0.0454416
0.0479685
0.051101
0.0553842
0.0623715
0.0892223
0.157049
0.224824
0.320589
0.437989
1.15947e-05
1.16285e-05
1.18629e-05
1.38965e-05
1.68063e-05
1.9561e-05
2.2646e-05
3.06482e-05
5.66077e-05
0.000139604
0.000378317
0.000975881
0.0022628
0.00466566
0.00860809
0.0144041
0.0221757
0.03185
0.0432066
0.0559421
0.0697625
0.0844054
0.0996569
0.115352
0.131333
0.147503
0.163667
0.179578
0.195704
0.21123
0.225757
0.239269
0.251109
0.261101
0.272402
0.283632
0.297212
0.316358
0.342512
0.36908
0.404785
0.462667
0.564713
0.829035
1.36526
1.95917
2.72911
3.58957
1.15909e-05
1.16387e-05
1.2138e-05
2.42572e-05
4.8524e-05
7.99088e-05
0.000148356
0.000403926
0.00127736
0.00372205
0.00920373
0.0192017
0.0344795
0.054766
0.0789351
0.1056
0.133571
0.162148
0.191086
0.220508
0.250847
0.282629
0.316375
0.352535
0.391391
0.433155
0.477714
0.524661
0.574674
0.625382
0.674972
0.724081
0.772493
0.824572
0.888679
0.956463
1.03224
1.13208
1.27121
1.51072
1.94521
2.64649
3.74933
5.482
7.8032
10.184
12.5552
14.8595
1.15937e-05
1.17762e-05
1.3795e-05
8.85277e-05
0.000311144
0.000750928
0.00221112
0.00724314
0.0201979
0.044928
0.0816202
0.12652
0.174397
0.22123
0.265046
0.30578
0.344502
0.382858
0.422421
0.464849
0.511842
0.564874
0.625195
0.693863
0.771646
0.859136
0.956353
1.06216
1.1773
1.29895
1.42274
1.55288
1.71198
1.92474
2.18987
2.47223
2.72491
3.05632
3.73494
5.08858
7.21935
10.0704
13.6411
17.9961
22.8653
27.251
31.0991
34.2959
1.16403e-05
1.26409e-05
2.20697e-05
0.000436155
0.0022483
0.00730892
0.0245054
0.0658881
0.133959
0.217339
0.300696
0.374444
0.43619
0.488133
0.533962
0.577556
0.6225
0.6721
0.729194
0.796554
0.876621
0.971722
1.084
1.21545
1.36779
1.54258
1.74037
1.95883
2.19895
2.45804
2.72791
3.02039
3.39551
3.89144
4.47071
5.15629
5.98742
7.29269
10.0846
14.7152
20.7215
27.3868
34.2842
41.5345
48.7476
54.6209
58.9241
61.7783
1.19661e-05
1.67701e-05
5.61629e-05
0.00203294
0.0137894
0.0512816
0.143226
0.278803
0.419814
0.537536
0.625777
0.691234
0.743236
0.790091
0.838076
0.892117
0.956615
1.03581
1.13409
1.25552
1.40355
1.58205
1.795
2.04642
2.34027
2.68033
3.06854
3.50362
3.98925
4.51732
5.06594
5.65884
6.39196
7.37229
8.57748
10.1348
12.4864
16.9259
25.0339
36.153
47.8681
58.512
67.9093
76.0323
82.9643
88.2062
91.6525
93.5332
1.35884e-05
3.18612e-05
0.000170495
0.00804506
0.0635308
0.215092
0.434243
0.635154
0.77988
0.873186
0.935545
0.984934
1.03293
1.08774
1.15513
1.23996
1.34764
1.48399
1.655
1.8667
2.12508
2.43671
2.80866
3.24867
3.76498
4.36489
5.05246
5.83087
6.71654
7.70779
8.75939
9.79977
10.9706
12.4822
14.6135
17.9335
23.4871
33.4237
47.4265
62.4168
75.9157
86.9985
95.984
103.083
109.027
114.063
117.664
119.81
1.9703e-05
7.50874e-05
0.000475414
0.0254328
0.199218
0.51117
0.784992
0.959336
1.06523
1.13179
1.18246
1.23389
1.29629
1.37716
1.48183
1.6164
1.78944
2.00908
2.28338
2.62111
3.03057
3.52263
4.10917
4.80369
5.62115
6.5737
7.66799
8.9137
10.3476
12.001
13.8692
15.7728
17.5676
19.2381
22.0536
27.7133
37.4113
50.2337
64.9197
79.4361
91.9076
101.772
109.379
115.68
121.862
127.958
132.772
135.849
3.79311e-05
0.000170056
0.00107989
0.0594644
0.401392
0.782678
1.02928
1.16097
1.24093
1.30205
1.36244
1.43507
1.52897
1.65175
1.8086
2.00727
2.25956
2.57694
2.97198
3.45826
4.04725
4.75558
5.6009
6.60415
7.78946
9.17457
10.7695
12.5908
14.6889
17.1273
20.0023
23.3357
26.4647
28.504
30.9363
37.4091
49.6549
64.6927
80.3279
94.9424
107.33
117.15
124.683
130.822
137.344
144.167
149.385
152.271
8.04288e-05
0.000319772
0.00183671
0.0945806
0.538801
0.909489
1.114
1.2238
1.30228
1.37717
1.46189
1.56751
1.703
1.877
2.09504
2.36672
2.70678
3.13068
3.65632
4.30226
5.08366
6.02558
7.1518
8.49272
10.0835
11.9474
14.0997
16.5679
19.4099
22.6936
26.5223
31.2186
36.4946
40.2437
41.6172
46.9207
60.0254
77.3524
94.9431
110.545
123.323
133.266
140.716
146.116
151.712
158.051
162.749
164.811
0.000156916
0.000460989
0.00223119
0.104536
0.531925
0.855231
1.0345
1.14415
1.2356
1.33183
1.44455
1.5843
1.76085
1.98451
2.26162
2.60445
3.03145
3.56243
4.22045
5.02849
6.00548
7.18681
8.60523
10.3017
12.3238
14.698
17.4454
20.611
24.26
28.4505
33.2292
38.9729
45.8875
52.3533
54.6617
57.8657
68.8353
85.5314
103.116
118.497
130.728
140.346
148.14
154.015
160.265
166.941
171.309
172.287
0.000259409
0.000497395
0.00187078
0.0779358
0.392163
0.652091
0.81233
0.923794
1.02458
1.13397
1.26309
1.42258
1.62326
1.87716
2.19383
2.58815
3.08187
3.69936
4.46922
5.4195
6.57387
7.97922
9.6784
11.7235
14.1742
17.064
20.4184
24.3053
28.7949
33.9378
39.7365
46.4348
54.5041
63.0381
69.2481
72.4146
79.7855
93.1055
108.381
122.643
135.046
145.9
155.774
163.813
171.666
178.282
180.868
179.451
0.000360941
0.000390021
0.00107627
0.0401267
0.210611
0.379918
0.500909
0.595086
0.683964
0.782805
0.901358
1.04967
1.23892
1.48226
1.79208
2.18571
2.6882
3.32846
4.14081
5.16116
6.42382
7.98389
9.89484
12.2206
15.0335
18.3776
22.2843
26.8468
32.1393
38.2069
45.0411
52.773
61.7894
71.7664
81.4527
88.9491
95.6233
106.566
119.912
133.711
147.231
159.441
170.325
178.669
184.89
188.329
187.33
182.81
0.00046239
0.000236205
0.000430397
0.0140405
0.0764461
0.149986
0.210638
0.263334
0.316737
0.378793
0.455841
0.555376
0.686757
0.861914
1.09368
1.39672
1.80032
2.33694
3.04639
3.97328
5.1641
6.68375
8.59941
10.9898
13.9426
17.5243
21.7915
26.8497
32.7746
39.6035
47.3227
56.0235
65.9541
76.978
88.3653
99.3393
109.496
121.394
134.903
148.865
162.15
173.145
181.329
186.098
188.406
188.441
185.58
179.508
0.000645938
0.000159569
0.000148921
0.00360765
0.0197506
0.0401333
0.0580607
0.0746126
0.0922547
0.113608
0.141169
0.178252
0.229475
0.301382
0.402299
0.54319
0.744275
1.0321
1.44287
2.02259
2.82589
3.92586
5.38801
7.32395
9.85187
13.0765
17.0947
22.0397
28.0037
35.0272
43.1128
52.2904
62.7749
74.6529
87.0137
99.2376
110.76
123.754
137.837
151.413
162.783
171.449
177.258
180.266
181.272
179.949
176.648
170.189
0.00132914
0.000262037
0.000125815
0.000703539
0.00361338
0.00740033
0.0107957
0.0139925
0.0174562
0.0217018
0.0272466
0.0348028
0.045401
0.0605629
0.0823598
0.113728
0.160162
0.229708
0.334642
0.493059
0.73081
1.08763
1.61342
2.39202
3.53701
5.18745
7.50718
10.7037
14.9647
20.4263
27.1012
35.0582
44.4475
55.6868
68.0159
80.306
92.2838
105.011
118.158
130.707
141.418
149.457
154.657
156.724
156.263
154.046
151.353
147.042
0.00490279
0.000959252
0.000418504
0.000259357
0.000536706
0.00104476
0.00153795
0.00202662
0.00256961
0.00323444
0.00409082
0.00523387
0.00680126
0.00899239
0.0120802
0.016453
0.0228092
0.0321784
0.0461361
0.0670411
0.0983527
0.145527
0.215952
0.322367
0.483739
0.726776
1.08902
1.62705
2.41213
3.53228
5.08131
7.18981
10.0285
13.9501
19.0591
24.9746
31.7646
39.5587
48.022
56.6419
64.8583
71.5376
75.8798
76.5882
74.6041
73.6665
74.2521
77.8592
0.0366225
0.00716652
0.00312869
0.00144894
0.00144033
0.00249046
0.00371019
0.00502987
0.00654788
0.0083867
0.0106777
0.0135897
0.0173612
0.0223047
0.0288378
0.0375364
0.0492404
0.0651152
0.0867597
0.116365
0.156851
0.212282
0.287945
0.391364
0.532602
0.724275
0.982379
1.32988
1.78641
2.37842
3.14252
4.10148
5.2698
6.71222
8.38304
10.2189
12.349
14.5318
16.7661
18.9041
20.7986
22.1594
22.6764
21.7482
19.7501
18.989
19.7989
23.6909
0.0145481
0.00248215
0.00118043
0.000840924
0.000701537
0.000635067
0.000610113
0.000623592
0.000672585
0.000762492
0.000919018
0.00123716
0.00242173
0.00456198
0.00142297
3.80162e-05
4.90909e-05
6.07518e-05
0.000207158
0.000455527
0.000855789
0.00153198
0.00270321
0.00477162
0.00842136
0.0148655
0.0265385
0.0506836
0.113678
0.396557
0.00247058
0.000423265
0.000187297
0.000131408
0.000109309
9.96005e-05
9.71332e-05
0.000101802
0.000113768
0.000134998
0.000172996
0.000254153
0.000488501
0.000827475
0.000274147
4.21832e-05
0.000158385
0.00020672
0.000226727
0.000271164
0.000349244
0.000482402
0.00070718
0.00114982
0.00186578
0.00312683
0.00545736
0.0102547
0.0215645
0.0587646
0.000918569
0.000211044
8.64978e-05
6.04154e-05
5.34672e-05
5.63624e-05
6.74327e-05
8.99654e-05
0.000128843
0.000193308
0.000312075
0.000579105
0.00104049
0.00120972
0.000526148
0.000300009
0.00125587
0.00165536
0.00167629
0.00178112
0.00199494
0.00235503
0.0029073
0.00387371
0.00516879
0.00700112
0.00968535
0.0137009
0.0202162
0.0271913
0.000499362
0.00019858
0.000104497
8.54352e-05
9.0738e-05
0.000115636
0.000164828
0.000252008
0.000396808
0.000632924
0.00106114
0.00198656
0.00332757
0.00350027
0.00180417
0.00130266
0.00543166
0.0071013
0.00720711
0.00757254
0.00829413
0.00943061
0.0109891
0.0131841
0.0156546
0.0184264
0.0216146
0.0252678
0.0306448
0.0345027
0.000321769
0.000212793
0.000159012
0.000158258
0.000191358
0.0002641
0.000396143
0.000620994
0.000985216
0.00156073
0.0025545
0.00450092
0.00680028
0.00696183
0.00423292
0.00396417
0.0159897
0.019849
0.0198852
0.0202358
0.021145
0.0225822
0.0243829
0.02656
0.028731
0.0309216
0.0332915
0.035874
0.0405504
0.0461386
0.000221671
0.000210964
0.00020769
0.000241987
0.000320788
0.000464893
0.00071502
0.00112585
0.00177016
0.00274483
0.00432193
0.00708738
0.00973431
0.0100354
0.00703486
0.00858021
0.0335835
0.0383395
0.037436
0.0366588
0.0365215
0.0369143
0.0375793
0.0384464
0.0393577
0.0404019
0.0418119
0.0436722
0.0480354
0.0549281
0.000155325
0.000188206
0.000226234
0.000298749
0.000426595
0.000643495
0.00100828
0.00158655
0.00246168
0.00372298
0.00562034
0.00853363
0.0107184
0.0113785
0.00920638
0.0138551
0.0532281
0.0573877
0.0547239
0.0519941
0.0499993
0.0486251
0.0476544
0.0470208
0.0467155
0.0469008
0.0478437
0.0495286
0.0535606
0.0605955
0.000107909
0.00015182
0.000208134
0.000300812
0.000454841
0.000709121
0.00112723
0.00176953
0.00270674
0.0039915
0.00578339
0.00816152
0.0094628
0.0105693
0.0100408
0.0179663
0.0702451
0.0744862
0.0697886
0.0647609
0.0606611
0.0574323
0.0549206
0.0530855
0.0519661
0.0516977
0.0524703
0.0540619
0.0574509
0.0635442
7.34179e-05
0.000111095
0.000164671
0.00025104
0.000392272
0.000623528
0.000996936
0.00155818
0.00235129
0.00338924
0.00473517
0.00625852
0.00675048
0.00812227
0.00942196
0.0195832
0.079565
0.0882119
0.0823017
0.0751364
0.0690587
0.0641884
0.0604231
0.0576986
0.0560144
0.0554292
0.0559936
0.0572378
0.0597409
0.0642584
4.88626e-05
7.44409e-05
0.000112751
0.000174183
0.000274504
0.000437922
0.000694749
0.00107431
0.00159565
0.00224674
0.0030185
0.0037333
0.00376205
0.00496828
0.00770603
0.0185324
0.0786485
0.0961361
0.0915953
0.0831573
0.0755574
0.0693905
0.0646424
0.0612124
0.059034
0.0580841
0.0581933
0.0589296
0.060351
0.0630402
3.22742e-05
4.65718e-05
6.84567e-05
0.00010227
0.000155729
0.000240004
0.000366662
0.000550956
0.000798596
0.00109714
0.00142615
0.00167492
0.00159677
0.00234555
0.00554669
0.0155321
0.0679263
0.0953598
0.0957686
0.088019
0.079814
0.0728616
0.0674157
0.0634045
0.060725
0.059301
0.0587819
0.0587825
0.0590464
0.0599406
2.19486e-05
2.86135e-05
3.86402e-05
5.34315e-05
7.50375e-05
0.000106037
0.000150998
0.000214494
0.000297718
0.000395193
0.000497023
0.000561114
0.000513857
0.000832373
0.00357857
0.0117215
0.0511772
0.0839698
0.092099
0.0877983
0.0805804
0.0737143
0.0680045
0.0635969
0.0604404
0.0584572
0.057182
0.0563134
0.0554815
0.054856
1.61843e-05
1.88192e-05
2.23923e-05
2.7297e-05
3.38629e-05
4.22584e-05
5.4066e-05
6.99787e-05
9.00605e-05
0.00011276
0.000135247
0.0001467
0.000131072
0.000227978
0.00213349
0.00809935
0.0338133
0.0626319
0.078414
0.0800259
0.0758621
0.0703566
0.0651265
0.0607026
0.05724
0.0547154
0.0527151
0.0510234
0.049316
0.0476357
1.33574e-05
1.42603e-05
1.52677e-05
1.64604e-05
1.77657e-05
1.94289e-05
2.16508e-05
2.45068e-05
2.79622e-05
3.17177e-05
3.52594e-05
3.67177e-05
3.37807e-05
5.56562e-05
0.00121723
0.00521285