/*--------------------------------*- C++ -*----------------------------------*\
| =========                 |                                                 |
| \\      /  F ield         | OpenFOAM: The Open Source CFD Toolbox           |
|  \\    /   O peration     | Version:  2212                                  |
|   \\  /    A nd           | Website:  www.openfoam.com                      |
|    \\/     M anipulation  |                                                 |
\*---------------------------------------------------------------------------*/
FoamFile
{
    version     2.0;
    format      ascii;
    arch        "LSB;label=32;scalar=64";
    class       volSymmTensorField;
    location    "10000";
    object      nonlinearR;
}
// * * * * * * * * * * * * * * * * * * * * * * * * * * * * * * * * * * * * * //

dimensions      [0 2 -2 0 0 0 0];

internalField   nonuniform List<symmTensor> 
18080
(
(-7.36108e-11 -1.90172e-16 -4.40604e-10 6.8683e-13 -7.38174e-16 7.2924e-11)
(8.45601e-10 -1.29357e-15 1.39551e-08 1.19275e-10 1.22982e-15 -9.64876e-10)
(4.22462e-09 -2.88802e-16 7.19015e-08 1.76482e-09 -2.74578e-14 -5.98944e-09)
(6.88085e-09 4.43927e-15 1.19525e-07 4.13994e-09 6.57584e-15 -1.10208e-08)
(7.89868e-09 -1.47648e-15 1.37734e-07 5.35058e-09 1.20609e-14 -1.32493e-08)
(8.45494e-09 -2.80097e-15 1.49762e-07 6.20735e-09 8.22925e-15 -1.46623e-08)
(8.67951e-09 -3.11138e-15 1.57613e-07 6.77213e-09 -1.58109e-14 -1.54516e-08)
(8.69568e-09 -8.90311e-16 1.62916e-07 7.1239e-09 -1.40817e-14 -1.58196e-08)
(8.59967e-09 1.40455e-15 1.66943e-07 7.33385e-09 -1.67244e-14 -1.59335e-08)
(8.46473e-09 1.61285e-15 1.70729e-07 7.4636e-09 -8.70668e-17 -1.59283e-08)
(8.34979e-09 -1.75753e-18 1.75217e-07 7.57035e-09 -2.46042e-15 -1.59201e-08)
(8.29666e-09 3.87147e-16 1.81125e-07 7.69491e-09 -9.16051e-15 -1.59916e-08)
(8.33856e-09 1.13843e-15 1.89129e-07 7.87107e-09 -9.92793e-15 -1.62096e-08)
(8.50252e-09 9.07438e-16 1.99879e-07 8.1252e-09 2.58032e-15 -1.66277e-08)
(8.81346e-09 4.54188e-16 2.13996e-07 8.4741e-09 -1.26798e-15 -1.72876e-08)
(9.28578e-09 7.72939e-17 2.32044e-07 8.92134e-09 4.52388e-16 -1.82071e-08)
(9.92914e-09 4.41313e-17 2.54496e-07 9.45505e-09 1.81904e-16 -1.93842e-08)
(1.07454e-08 -2.90595e-16 2.81683e-07 1.00455e-08 -8.57375e-16 -2.07909e-08)
(1.17295e-08 -4.49157e-16 3.1375e-07 1.06466e-08 -5.4475e-15 -2.23761e-08)
(1.28719e-08 -4.89633e-16 3.50632e-07 1.12013e-08 -3.29896e-15 -2.40733e-08)
(1.41636e-08 1.67875e-16 3.92064e-07 1.16524e-08 -4.84426e-15 -2.5816e-08)
(1.56032e-08 6.77091e-16 4.37664e-07 1.19573e-08 7.99587e-16 -2.75605e-08)
(1.7207e-08 1.43749e-16 4.87073e-07 1.21006e-08 6.81174e-17 -2.93076e-08)
(1.90176e-08 3.99139e-16 5.40135e-07 1.21022e-08 -3.02125e-16 -3.11198e-08)
(2.11081e-08 -3.26505e-17 5.97057e-07 1.20148e-08 -9.38197e-16 -3.3123e-08)
(2.35794e-08 -1.69996e-16 6.58456e-07 1.19168e-08 -1.70479e-15 -3.54962e-08)
(2.65509e-08 -1.57611e-16 7.25273e-07 1.18995e-08 -2.14671e-15 -3.84505e-08)
(3.01326e-08 -3.11389e-16 7.98243e-07 1.20552e-08 -3.00957e-15 -4.21878e-08)
(3.4411e-08 -3.13691e-16 8.78029e-07 1.25072e-08 -3.34193e-15 -4.69183e-08)
(3.94553e-08 -1.85829e-16 9.64962e-07 1.33705e-08 -3.5809e-15 -5.28258e-08)
(4.5244e-08 -2.01833e-16 1.05806e-06 1.47608e-08 -5.66985e-15 -6.00047e-08)
(5.17326e-08 -2.76489e-16 1.15618e-06 1.68379e-08 -5.19307e-15 -6.85706e-08)
(5.89195e-08 -2.36082e-16 1.25873e-06 1.97859e-08 -6.80164e-15 -7.87055e-08)
(6.68646e-08 -6.4349e-16 1.3652e-06 2.37802e-08 -6.19266e-15 -9.06448e-08)
(7.57998e-08 -7.35981e-16 1.47703e-06 2.91251e-08 -3.93539e-15 -1.04925e-07)
(8.63219e-08 -5.03399e-16 1.59814e-06 3.62037e-08 -3.54631e-15 -1.22526e-07)
(9.94284e-08 -4.12869e-16 1.73512e-06 4.57144e-08 -3.17918e-15 -1.45143e-07)
(1.16886e-07 -6.62009e-16 1.89873e-06 5.88404e-08 -2.96676e-15 -1.75726e-07)
(1.41507e-07 -9.42546e-16 2.10335e-06 7.75823e-08 -2.40811e-15 -2.19089e-07)
(1.77798e-07 -1.13055e-15 2.36741e-06 1.05306e-07 -1.45398e-15 -2.83104e-07)
(2.32949e-07 -1.74071e-15 2.71293e-06 1.4754e-07 -1.93838e-16 -3.80489e-07)
(3.18363e-07 -1.82048e-15 3.16455e-06 2.13166e-07 1.00133e-15 -5.3153e-07)
(4.51768e-07 -3.41245e-17 3.74722e-06 3.15946e-07 3.22146e-15 -7.67714e-07)
(6.59675e-07 -6.92663e-16 4.48214e-06 4.76083e-07 7.76163e-15 -1.13576e-06)
(9.79022e-07 -1.89131e-15 5.37873e-06 7.20082e-07 1.31133e-14 -1.6991e-06)
(1.45423e-06 -2.50245e-15 6.42016e-06 1.07565e-06 2.09319e-14 -2.52988e-06)
(2.13525e-06 -3.73188e-15 7.56566e-06 1.56996e-06 2.98041e-14 -3.70521e-06)
(3.06871e-06 -1.8614e-15 8.75357e-06 2.21596e-06 4.49985e-14 -5.28466e-06)
(-6.50209e-11 -4.32949e-17 -2.46793e-10 4.73424e-13 5.02453e-17 6.45475e-11)
(1.71387e-09 -1.39844e-16 1.91676e-08 1.83609e-10 3.08686e-17 -1.89748e-09)
(7.15466e-09 -2.5775e-15 8.91179e-08 1.96285e-09 9.2317e-16 -9.11752e-09)
(1.22823e-08 2.91891e-15 1.62041e-07 4.94918e-09 -1.29914e-15 -1.72315e-08)
(1.41402e-08 1.52672e-15 1.90619e-07 6.38752e-09 6.96307e-16 -2.05277e-08)
(1.54704e-08 -1.3033e-16 2.12886e-07 7.53998e-09 4.51158e-16 -2.30104e-08)
(1.64141e-08 -1.95948e-15 2.30932e-07 8.44636e-09 1.45157e-15 -2.48604e-08)
(1.71018e-08 -2.75243e-15 2.46347e-07 9.16256e-09 1.49209e-15 -2.62644e-08)
(1.76362e-08 -1.97867e-15 2.60322e-07 9.74181e-09 3.11692e-16 -2.7378e-08)
(1.80993e-08 5.29736e-16 2.73798e-07 1.02329e-08 -7.88377e-16 -2.83321e-08)
(1.85687e-08 -1.97369e-16 2.87705e-07 1.0688e-08 -5.4474e-16 -2.92567e-08)
(1.9108e-08 -6.23487e-16 3.02809e-07 1.11517e-08 -6.3429e-16 -3.02597e-08)
(1.97679e-08 -9.74276e-17 3.19728e-07 1.16594e-08 -3.12803e-16 -3.14273e-08)
(2.0594e-08 1.44032e-16 3.39015e-07 1.22398e-08 -2.08931e-16 -3.28339e-08)
(2.16145e-08 -1.66731e-16 3.6112e-07 1.29159e-08 -3.09801e-16 -3.45304e-08)
(2.28421e-08 4.27072e-17 3.86341e-07 1.36986e-08 9.27549e-17 -3.65407e-08)
(2.42715e-08 -4.5046e-16 4.14798e-07 1.45872e-08 1.43373e-16 -3.88587e-08)
(2.5879e-08 -2.62084e-16 4.46433e-07 1.55703e-08 -5.7332e-17 -4.14494e-08)
(2.76319e-08 -4.51895e-16 4.81068e-07 1.66298e-08 1.77163e-16 -4.42617e-08)
(2.94958e-08 -4.11561e-16 5.18497e-07 1.775e-08 2.55807e-16 -4.72458e-08)
(3.14514e-08 -8.08517e-16 5.58643e-07 1.89286e-08 3.94942e-16 -5.03799e-08)
(3.35116e-08 -4.23166e-17 6.01707e-07 2.01863e-08 1.17504e-16 -5.36978e-08)
(3.57322e-08 -2.64389e-16 6.48289e-07 2.15745e-08 7.13585e-17 -5.73067e-08)
(3.82169e-08 1.81895e-16 6.99448e-07 2.3179e-08 -9.47386e-17 -6.13959e-08)
(4.11122e-08 2.98197e-16 7.56642e-07 2.51165e-08 -7.55069e-17 -6.62287e-08)
(4.45915e-08 2.41547e-16 8.21553e-07 2.75289e-08 -6.42115e-18 -7.21205e-08)
(4.88363e-08 2.06779e-16 8.95813e-07 3.05715e-08 -9.6796e-19 -7.94078e-08)
(5.39952e-08 1.91065e-16 9.80489e-07 3.4386e-08 5.78863e-17 -8.83812e-08)
(6.01748e-08 1.46714e-16 1.07621e-06 3.91156e-08 4.46683e-17 -9.92904e-08)
(6.74499e-08 9.55902e-17 1.18288e-06 4.48736e-08 7.17278e-17 -1.12323e-07)
(7.57908e-08 2.78113e-16 1.29931e-06 5.17108e-08 8.72361e-18 -1.27502e-07)
(8.51724e-08 2.45609e-16 1.42446e-06 5.96966e-08 3.41455e-17 -1.44869e-07)
(9.56857e-08 4.3707e-16 1.55819e-06 6.89777e-08 -3.39461e-17 -1.64663e-07)
(1.07586e-07 4.33869e-16 1.70131e-06 7.98e-08 -1.08903e-17 -1.87386e-07)
(1.2146e-07 1.42131e-16 1.85724e-06 9.27129e-08 1.60815e-16 -2.14173e-07)
(1.3849e-07 1.1354e-16 2.0323e-06 1.08689e-07 2.18741e-16 -2.4718e-07)
(1.60577e-07 2.52628e-16 2.23627e-06 1.29352e-07 2.32528e-16 -2.8993e-07)
(1.9092e-07 4.49062e-16 2.4833e-06 1.57367e-07 3.15891e-16 -3.48287e-07)
(2.3458e-07 4.82589e-16 2.7918e-06 1.96939e-07 4.60038e-16 -4.31519e-07)
(2.99668e-07 6.31684e-16 3.18481e-06 2.547e-07 5.26983e-16 -5.54368e-07)
(3.99123e-07 8.1161e-16 3.68928e-06 3.40993e-07 6.70768e-16 -7.40116e-07)
(5.53342e-07 2.71292e-16 4.33411e-06 4.71618e-07 1.04806e-15 -1.02496e-06)
(7.93475e-07 1.53568e-15 5.14539e-06 6.69727e-07 1.00685e-15 -1.4632e-06)
(1.16452e-06 3.48502e-15 6.13782e-06 9.66865e-07 1.25479e-15 -2.13138e-06)
(1.72509e-06 4.97466e-15 7.29918e-06 1.40028e-06 2.14547e-15 -3.12537e-06)
(2.53698e-06 6.79258e-15 8.56978e-06 2.0014e-06 3.7281e-15 -4.53838e-06)
(3.65505e-06 7.85471e-15 9.85364e-06 2.7873e-06 6.62571e-15 -6.44235e-06)
(5.10008e-06 1.08402e-14 1.10108e-05 3.72687e-06 1.04748e-14 -8.82695e-06)
(-5.30003e-10 6.21398e-17 -1.55708e-09 3.61309e-12 3.6213e-18 5.2639e-10)
(1.16379e-09 -3.30805e-17 1.16987e-08 6.61771e-11 -8.66084e-17 -1.22997e-09)
(4.30661e-09 3.87295e-17 5.43233e-08 6.94881e-10 3.16017e-18 -5.00149e-09)
(7.58533e-09 6.30533e-17 1.06951e-07 1.9996e-09 4.09434e-17 -9.58493e-09)
(8.86036e-09 9.72108e-16 1.30733e-07 2.78157e-09 -3.09563e-16 -1.16419e-08)
(1.00692e-08 5.81398e-16 1.52102e-07 3.55327e-09 -1.82179e-16 -1.36225e-08)
(1.12192e-08 7.13786e-16 1.71829e-07 4.30372e-09 -1.26932e-16 -1.55229e-08)
(1.23262e-08 4.11937e-16 1.90539e-07 5.03108e-09 1.29349e-17 -1.73573e-08)
(1.34064e-08 -8.15126e-16 2.08738e-07 5.73793e-09 2.06161e-16 -1.91443e-08)
(1.4477e-08 -5.80636e-16 2.26866e-07 6.4304e-09 7.69476e-17 -2.09074e-08)
(1.55639e-08 8.37241e-17 2.45443e-07 7.12241e-09 -1.86875e-18 -2.26863e-08)
(1.66923e-08 -2.515e-16 2.6492e-07 7.82849e-09 1.87909e-16 -2.45208e-08)
(1.78818e-08 -4.12397e-16 2.85653e-07 8.5615e-09 2.16825e-16 -2.64433e-08)
(1.91517e-08 -1.08202e-16 3.07982e-07 9.33432e-09 1.16299e-16 -2.8486e-08)
(2.05201e-08 -3.92844e-16 3.32211e-07 1.01573e-08 2.21885e-16 -3.06774e-08)
(2.19938e-08 -1.98923e-16 3.58589e-07 1.10407e-08 1.26366e-16 -3.30345e-08)
(2.35758e-08 -2.89171e-16 3.87305e-07 1.19905e-08 1.18409e-16 -3.55663e-08)
(2.52616e-08 -3.04864e-16 4.1849e-07 1.30102e-08 8.96654e-17 -3.82718e-08)
(2.70468e-08 -1.02452e-16 4.52254e-07 1.41023e-08 5.83809e-17 -4.11491e-08)
(2.893e-08 3.56485e-17 4.88733e-07 1.52721e-08 1.95137e-17 -4.42021e-08)
(3.09199e-08 -4.37538e-18 5.28165e-07 1.65333e-08 2.97978e-17 -4.74532e-08)
(3.30455e-08 7.47875e-17 5.70973e-07 1.7913e-08 -4.37797e-18 -5.09585e-08)
(3.53606e-08 2.99243e-18 6.17812e-07 1.94555e-08 2.22896e-18 -5.4816e-08)
(3.79472e-08 -1.2264e-17 6.6961e-07 2.12248e-08 1.69024e-17 -5.9172e-08)
(4.09127e-08 -1.39015e-18 7.27509e-07 2.33043e-08 1.35285e-17 -6.4217e-08)
(4.43805e-08 6.2569e-17 7.92789e-07 2.57938e-08 -4.34913e-18 -7.01743e-08)
(4.84807e-08 8.14336e-17 8.66692e-07 2.88026e-08 -9.52356e-18 -7.72833e-08)
(5.33209e-08 1.01011e-16 9.50012e-07 3.24253e-08 -2.22704e-17 -8.57462e-08)
(5.8978e-08 1.08383e-16 1.04346e-06 3.67686e-08 -2.48735e-17 -9.57465e-08)
(6.55344e-08 1.64821e-16 1.14731e-06 4.19242e-08 -1.38653e-17 -1.07459e-07)
(7.29948e-08 1.09077e-16 1.26102e-06 4.79402e-08 -6.70373e-18 -1.20935e-07)
(8.1385e-08 1.10294e-16 1.38441e-06 5.49061e-08 -3.0157e-18 -1.36291e-07)
(9.08573e-08 1.14357e-16 1.51836e-06 6.30093e-08 6.75627e-19 -1.53867e-07)
(1.01728e-07 1.65796e-16 1.66432e-06 7.2523e-08 1.76898e-18 -1.74251e-07)
(1.14554e-07 2.08372e-16 1.82626e-06 8.40098e-08 1.28846e-17 -1.98563e-07)
(1.30456e-07 1.26087e-16 2.01039e-06 9.83655e-08 2.94606e-17 -2.28821e-07)
(1.51092e-07 1.06681e-16 2.22576e-06 1.17014e-07 3.37313e-17 -2.68105e-07)
(1.79238e-07 2.72764e-16 2.48505e-06 1.42194e-07 2.72532e-17 -3.21432e-07)
(2.19206e-07 3.26715e-16 2.80427e-06 1.77313e-07 4.0174e-17 -3.96519e-07)
(2.77822e-07 3.76399e-16 3.20328e-06 2.27591e-07 5.16269e-17 -5.05414e-07)
(3.65878e-07 6.41856e-16 3.70523e-06 3.00963e-07 5.40953e-17 -6.66842e-07)
(5.00254e-07 7.40078e-16 4.33519e-06 4.09283e-07 9.43368e-17 -9.09537e-07)
(7.06633e-07 7.63713e-16 5.11655e-06 5.69635e-07 1.82428e-16 -1.27627e-06)
(1.02223e-06 9.87852e-16 6.06489e-06 8.05271e-07 3.34896e-16 -1.8275e-06)
(1.49689e-06 1.49647e-15 7.17615e-06 1.14418e-06 5.31305e-16 -2.64107e-06)
(2.18732e-06 2.28485e-15 8.4074e-06 1.6112e-06 8.67337e-16 -3.79852e-06)
(3.15045e-06 3.24173e-15 9.68845e-06 2.22527e-06 1.48946e-15 -5.37571e-06)
(4.41511e-06 4.51834e-15 1.09221e-05 2.98412e-06 2.45667e-15 -7.39923e-06)
(-1.28236e-09 6.76806e-17 -3.10818e-09 1.26458e-11 -7.83148e-18 1.26972e-09)
(6.03846e-10 -3.48304e-18 5.20691e-09 1.52634e-11 1.9951e-17 -6.19109e-10)
(2.33183e-09 -2.60404e-16 2.72807e-08 1.8024e-10 5.72569e-17 -2.51207e-09)
(4.34555e-09 -1.3097e-16 5.938e-08 6.17123e-10 9.53334e-18 -4.96267e-09)
(5.33672e-09 1.52279e-16 7.85981e-08 9.97148e-10 -7.15936e-17 -6.33387e-09)
(1.14076e-08 1.92162e-16 9.69333e-08 -9.79778e-10 -6.42772e-17 -1.04278e-08)
(9.66066e-09 2.17382e-16 1.16155e-07 8.874e-10 -7.04675e-17 -1.05481e-08)
(8.59899e-09 2.90383e-16 1.35325e-07 2.49345e-09 -8.59427e-17 -1.10924e-08)
(9.76062e-09 2.42426e-16 1.54201e-07 3.07532e-09 -7.20562e-17 -1.28359e-08)
(1.09543e-08 -6.86101e-17 1.73293e-07 3.68536e-09 -2.01138e-17 -1.46396e-08)
(1.21855e-08 7.21544e-17 1.92858e-07 4.32125e-09 -3.80336e-17 -1.65067e-08)
(1.34597e-08 2.9119e-16 2.13137e-07 4.98225e-09 -5.44949e-17 -1.84419e-08)
(1.47796e-08 2.97864e-16 2.34308e-07 5.66676e-09 -5.61349e-17 -2.04463e-08)
(1.61467e-08 2.57982e-16 2.56564e-07 6.37562e-09 -3.95823e-17 -2.25223e-08)
(1.7564e-08 2.56517e-16 2.80094e-07 7.10984e-09 -5.25347e-17 -2.46739e-08)
(1.90358e-08 2.35316e-16 3.05085e-07 7.87012e-09 -4.65963e-17 -2.6906e-08)
(2.05611e-08 1.50849e-16 3.31727e-07 8.66088e-09 -3.73508e-17 -2.9222e-08)
(2.21416e-08 -2.17425e-17 3.60215e-07 9.48649e-09 -1.55091e-17 -3.16281e-08)
(2.37806e-08 7.26448e-17 3.90774e-07 1.03542e-08 -2.71509e-17 -3.41348e-08)
(2.54868e-08 1.65144e-16 4.2367e-07 1.1274e-08 -2.73818e-17 -3.67608e-08)
(2.72747e-08 1.02168e-16 4.59246e-07 1.22617e-08 -1.32435e-17 -3.95364e-08)
(2.91681e-08 3.19777e-17 4.97958e-07 1.33412e-08 -9.53827e-18 -4.25093e-08)
(3.12006e-08 3.73353e-18 5.40376e-07 1.45446e-08 -3.88493e-18 -4.57451e-08)
(3.3416e-08 -1.08662e-17 5.87203e-07 1.5914e-08 -4.89127e-19 -4.933e-08)
(3.58663e-08 -3.1248e-18 6.39228e-07 1.75008e-08 1.47653e-18 -5.3367e-08)
(3.86065e-08 -2.81451e-17 6.97311e-07 1.93658e-08 5.15656e-18 -5.79723e-08)
(4.16929e-08 -2.85114e-17 7.62302e-07 2.1578e-08 3.58573e-18 -6.32709e-08)
(4.51665e-08 3.45827e-17 8.34745e-07 2.41993e-08 1.05292e-18 -6.93659e-08)
(4.90542e-08 -2.51725e-17 9.15468e-07 2.73212e-08 8.24052e-18 -7.63755e-08)
(5.34132e-08 -2.38359e-17 1.0051e-06 3.10381e-08 6.66116e-18 -8.44513e-08)
(5.825e-08 -3.08787e-17 1.1038e-06 3.54344e-08 7.79348e-18 -9.36844e-08)
(6.35996e-08 -2.70743e-17 1.21234e-06 4.06526e-08 7.96537e-18 -1.04252e-07)
(6.95934e-08 -2.38821e-17 1.33238e-06 4.69242e-08 8.43878e-18 -1.16518e-07)
(7.64618e-08 -8.61123e-18 1.46575e-06 5.45407e-08 8.14493e-18 -1.31003e-07)
(8.45427e-08 4.69879e-17 1.6165e-06 6.40327e-08 5.23295e-18 -1.48575e-07)
(9.4553e-08 7.34398e-17 1.78975e-06 7.61491e-08 5.45421e-18 -1.70702e-07)
(1.07475e-07 6.40319e-17 1.99307e-06 9.20673e-08 9.17329e-18 -1.99542e-07)
(1.25028e-07 9.774e-17 2.23654e-06 1.13579e-07 1.12137e-17 -2.38607e-07)
(1.49911e-07 1.2011e-16 2.53294e-06 1.43393e-07 1.63712e-17 -2.93304e-07)
(1.86499e-07 8.03626e-18 2.89831e-06 1.85652e-07 3.68643e-17 -3.72151e-07)
(2.419e-07 1.51262e-17 3.35178e-06 2.46643e-07 5.02553e-17 -4.88542e-07)
(3.27547e-07 1.03385e-16 3.91488e-06 3.35795e-07 6.57367e-17 -6.63342e-07)
(4.61424e-07 1.14877e-16 4.60932e-06 4.66861e-07 1.09267e-16 -9.28285e-07)
(6.70694e-07 1.66547e-16 5.45314e-06 6.59073e-07 1.84152e-16 -1.32977e-06)
(9.94096e-07 1.12304e-16 6.4517e-06 9.36889e-07 3.19627e-16 -1.93099e-06)
(1.48049e-06 3.40013e-16 7.58178e-06 1.32537e-06 4.8826e-16 -2.80586e-06)
(2.18609e-06 5.46708e-16 8.80475e-06 1.85141e-06 8.09253e-16 -4.0375e-06)
(3.15377e-06 8.23068e-16 1.00529e-05 2.52952e-06 1.33079e-15 -5.68329e-06)
(-2.31561e-09 -2.78179e-17 -4.31697e-09 2.46226e-11 1.75013e-17 2.29099e-09)
(3.51498e-10 2.96346e-17 2.29555e-09 5.53453e-12 -8.54971e-18 -3.57032e-10)
(1.5894e-09 -5.54095e-17 1.47075e-08 6.12951e-11 2.97828e-19 -1.6507e-09)
(3.24956e-09 -5.9706e-16 3.64381e-08 2.45355e-10 3.43908e-17 -3.49492e-09)
(4.15764e-09 -2.38279e-16 5.19398e-08 4.47099e-10 -1.50536e-17 -4.60474e-09)
(1.36984e-08 1.35429e-16 6.70356e-08 -3.48156e-09 -5.01693e-17 -1.02168e-08)
(1.63605e-08 2.99891e-16 8.32637e-08 -3.98139e-09 -4.99232e-17 -1.23791e-08)
(9.64931e-09 1.78663e-16 1.00863e-07 1.6192e-10 -1.77269e-17 -9.81123e-09)
(8.19761e-09 2.06912e-17 1.18305e-07 1.80866e-09 -1.67556e-17 -1.00063e-08)
(9.30947e-09 4.0684e-17 1.35768e-07 2.25624e-09 -1.52549e-17 -1.15657e-08)
(1.0465e-08 -1.31218e-17 1.53753e-07 2.73611e-09 -2.74628e-18 -1.32012e-08)
(1.16673e-08 1.49835e-16 1.72413e-07 3.24511e-09 -1.61267e-17 -1.49124e-08)
(1.2915e-08 8.7971e-17 1.91848e-07 3.7793e-09 -1.60332e-18 -1.66943e-08)
(1.42064e-08 1.71218e-17 2.12188e-07 4.33625e-09 -3.69355e-18 -1.85427e-08)
(1.55383e-08 2.12392e-17 2.33563e-07 4.91509e-09 -3.4133e-18 -2.04534e-08)
(1.69088e-08 8.26968e-18 2.56119e-07 5.51558e-09 1.02131e-18 -2.24244e-08)
(1.83191e-08 4.26392e-17 2.80028e-07 6.13845e-09 1.98226e-19 -2.44576e-08)
(1.97666e-08 -3.63184e-17 3.05487e-07 6.78909e-09 9.93032e-18 -2.65557e-08)
(2.12539e-08 -9.79546e-17 3.32739e-07 7.47478e-09 1.39573e-17 -2.87287e-08)
(2.27871e-08 -4.42194e-17 3.62071e-07 8.20602e-09 1.274e-17 -3.09931e-08)
(2.43768e-08 -1.96291e-17 3.93847e-07 8.99751e-09 1.00599e-17 -3.33743e-08)
(2.60393e-08 -6.71878e-17 4.2851e-07 9.86929e-09 1.38602e-17 -3.59086e-08)
(2.77937e-08 -4.5047e-17 4.66578e-07 1.08472e-08 1.2959e-17 -3.86409e-08)
(2.9662e-08 -2.54134e-17 5.08651e-07 1.19636e-08 1.33729e-17 -4.16256e-08)
(3.1667e-08 -5.32095e-17 5.55368e-07 1.32561e-08 1.56366e-17 -4.4923e-08)
(3.38284e-08 -6.9675e-17 6.07419e-07 1.47698e-08 1.56612e-17 -4.85981e-08)
(3.61635e-08 -1.00473e-16 6.65487e-07 1.65559e-08 1.78985e-17 -5.27193e-08)
(3.86743e-08 -8.16898e-17 7.29974e-07 1.86597e-08 1.38867e-17 -5.7334e-08)
(4.13508e-08 -3.51598e-17 8.01777e-07 2.11611e-08 1.00701e-17 -6.25119e-08)
(4.42124e-08 -2.50021e-17 8.81586e-07 2.4142e-08 9.58874e-18 -6.83544e-08)
(4.72291e-08 -1.55551e-17 9.69733e-07 2.76803e-08 9.23923e-18 -7.49095e-08)
(5.03851e-08 -2.14419e-17 1.06727e-06 3.19113e-08 8.97482e-18 -8.22964e-08)
(5.37238e-08 -2.79783e-17 1.17606e-06 3.70479e-08 9.14371e-18 -9.07717e-08)
(5.73444e-08 -3.93572e-17 1.29781e-06 4.33364e-08 9.10992e-18 -1.00681e-07)
(6.13546e-08 -1.53431e-17 1.43654e-06 5.12414e-08 7.28297e-18 -1.12596e-07)
(6.61336e-08 2.08306e-18 1.59662e-06 6.13715e-08 7.31489e-18 -1.27505e-07)
(7.21423e-08 1.90682e-17 1.78483e-06 7.47002e-08 6.68246e-18 -1.46842e-07)
(8.0334e-08 3.3964e-17 2.00997e-06 9.26847e-08 7.39404e-18 -1.73019e-07)
(9.22863e-08 6.26519e-17 2.28324e-06 1.17517e-07 7.99711e-18 -2.09803e-07)
(1.10736e-07 8.21839e-17 2.61884e-06 1.5254e-07 1.10576e-17 -2.63276e-07)
(1.40418e-07 9.05958e-17 3.03401e-06 2.02821e-07 1.7537e-17 -3.43239e-07)
(1.89397e-07 1.56753e-16 3.54869e-06 2.75967e-07 2.38945e-17 -4.65365e-07)
(2.71055e-07 2.48833e-16 4.1841e-06 3.83143e-07 3.73957e-17 -6.54197e-07)
(4.066e-07 2.67061e-16 4.96048e-06 5.40281e-07 7.50049e-17 -9.46881e-07)
(6.28156e-07 2.7956e-16 5.88978e-06 7.68344e-07 1.31106e-16 -1.3965e-06)
(9.80134e-07 3.82995e-16 6.95986e-06 1.08981e-06 2.08078e-16 -2.06994e-06)
(1.51753e-06 4.99381e-16 8.15023e-06 1.53199e-06 3.83726e-16 -3.04952e-06)
(2.28088e-06 6.89263e-16 9.43924e-06 2.12806e-06 6.52531e-16 -4.40894e-06)
(-4.05812e-09 -7.9816e-18 -5.84924e-09 4.37672e-11 -9.83393e-18 4.01435e-09)
(1.41249e-10 4.19618e-17 7.07006e-10 3.53738e-12 -5.81412e-18 -1.44787e-10)
(1.07947e-09 3.84638e-17 7.66632e-09 2.60463e-11 1.1587e-17 -1.10551e-09)
(2.60928e-09 -4.4453e-16 2.28862e-08 1.10905e-10 5.71071e-17 -2.72018e-09)
(3.80561e-09 -7.81208e-16 3.55324e-08 1.01775e-10 7.56041e-17 -3.90738e-09)
(1.47273e-08 -4.48324e-16 4.79498e-08 -4.65085e-09 3.27589e-17 -1.00765e-08)
(1.71217e-08 -2.20525e-16 6.18583e-08 -5.14814e-09 1.79689e-17 -1.19735e-08)
(1.79134e-08 -1.97123e-16 7.63969e-08 -4.80518e-09 1.2205e-17 -1.31083e-08)
(7.48435e-09 -1.34726e-16 9.26877e-08 1.11969e-09 7.30291e-18 -8.60404e-09)
(8.53556e-09 -3.76834e-17 1.08122e-07 1.43923e-09 4.70865e-18 -9.97479e-09)
(9.6258e-09 -2.88377e-17 1.24096e-07 1.78964e-09 3.65089e-18 -1.14154e-08)
(1.07598e-08 4.25964e-17 1.40718e-07 2.16806e-09 -3.09421e-19 -1.29278e-08)
(1.19367e-08 7.35073e-17 1.58049e-07 2.57066e-09 -4.40393e-18 -1.45074e-08)
(1.31547e-08 1.06116e-17 1.76182e-07 2.99476e-09 -1.27212e-18 -1.61495e-08)
(1.44105e-08 5.01489e-17 1.9521e-07 3.43799e-09 -1.79307e-18 -1.78485e-08)
(1.56983e-08 3.25909e-17 2.15252e-07 3.90047e-09 1.60126e-18 -1.95988e-08)
(1.70165e-08 -1.1731e-17 2.36454e-07 4.38226e-09 2.98961e-18 -2.13987e-08)
(1.83643e-08 5.25706e-18 2.58995e-07 4.88543e-09 3.9403e-19 -2.32498e-08)
(1.97396e-08 2.90891e-17 2.83107e-07 5.41682e-09 3.33057e-19 -2.51564e-08)
(2.11445e-08 3.4445e-17 3.09062e-07 5.98476e-09 1.70129e-19 -2.71292e-08)
(2.25835e-08 1.42239e-17 3.37206e-07 6.60128e-09 8.30491e-19 -2.91848e-08)
(2.40646e-08 2.00779e-17 3.67947e-07 7.28186e-09 9.99563e-20 -3.13465e-08)
(2.55957e-08 1.12803e-18 4.0175e-07 8.04578e-09 8.80298e-19 -3.36415e-08)
(2.71824e-08 1.18114e-17 4.39137e-07 8.91715e-09 -5.87162e-19 -3.60995e-08)
(2.88262e-08 3.64579e-17 4.80646e-07 9.92356e-09 -2.45388e-18 -3.87497e-08)
(3.05215e-08 4.13994e-17 5.26865e-07 1.10984e-08 -2.58006e-18 -4.162e-08)
(3.22563e-08 2.19009e-17 5.78375e-07 1.24799e-08 -1.53785e-18 -4.47362e-08)
(3.39997e-08 1.64846e-17 6.35469e-07 1.40997e-08 -7.86766e-19 -4.80994e-08)
(3.57098e-08 1.84017e-17 6.99121e-07 1.60268e-08 -7.8446e-19 -5.17366e-08)
(3.7363e-08 1.98505e-17 7.69975e-07 1.83264e-08 -6.78713e-19 -5.56895e-08)
(3.88816e-08 1.77187e-17 8.48415e-07 2.10637e-08 -6.55197e-19 -5.99453e-08)
(4.01854e-08 1.66827e-17 9.35619e-07 2.43576e-08 -4.16323e-19 -6.4543e-08)
(4.1218e-08 2.8909e-17 1.03351e-06 2.83912e-08 -6.96694e-19 -6.96092e-08)
(4.19371e-08 2.72335e-17 1.14354e-06 3.33607e-08 -2.18069e-19 -7.52978e-08)
(4.22271e-08 2.72455e-17 1.26973e-06 3.96652e-08 5.29878e-19 -8.18923e-08)
(4.21488e-08 3.87381e-17 1.4157e-06 4.77808e-08 1.94635e-19 -8.99295e-08)
(4.16817e-08 2.39395e-17 1.58768e-06 5.85056e-08 1.71688e-18 -1.00187e-07)
(4.10816e-08 2.30622e-17 1.79336e-06 7.30026e-08 2.60523e-18 -1.14084e-07)
(4.09091e-08 1.24815e-17 2.04259e-06 9.30248e-08 4.23235e-18 -1.33934e-07)
(4.24179e-08 1.70469e-17 2.34801e-06 1.21249e-07 6.02334e-18 -1.63667e-07)
(4.82013e-08 4.73223e-17 2.72511e-06 1.61743e-07 6.73209e-18 -2.09945e-07)
(6.327e-08 2.63043e-17 3.19234e-06 2.20662e-07 1.27287e-17 -2.83932e-07)
(9.67941e-08 4.11083e-17 3.77013e-06 3.07149e-07 2.11891e-17 -4.03943e-07)
(1.64433e-07 1.17981e-16 4.47989e-06 4.34584e-07 2.66066e-17 -5.99018e-07)
(2.91832e-07 1.55659e-16 5.33749e-06 6.21091e-07 4.53854e-17 -9.12923e-07)
(5.1785e-07 1.2219e-16 6.33875e-06 8.87075e-07 1.00181e-16 -1.40493e-06)
(8.92892e-07 6.5919e-17 7.47912e-06 1.26041e-06 2.02811e-16 -2.15331e-06)
(1.45517e-06 1.89617e-16 8.76033e-06 1.78093e-06 3.34474e-16 -3.2361e-06)
(-6.86499e-09 6.95504e-19 -7.70289e-09 7.41106e-11 2.54751e-20 6.79088e-09)
(-8.94483e-11 9.84023e-17 -2.96354e-10 3.54304e-12 -9.48429e-18 8.59053e-11)
(5.77726e-10 1.49141e-16 3.18156e-09 1.54965e-11 -1.29463e-17 -5.93222e-10)
(2.09205e-09 6.19677e-17 1.41889e-08 5.75976e-11 -1.17968e-17 -2.14965e-09)
(3.55998e-09 2.00318e-16 2.47234e-08 -7.33098e-11 -2.01255e-17 -3.48667e-09)
(1.45693e-08 9.59896e-17 3.50006e-08 -4.93365e-09 -3.96014e-18 -9.63568e-09)
(1.66925e-08 -7.6715e-17 4.69294e-08 -5.348e-09 5.4653e-18 -1.13445e-08)
(1.89008e-08 -1.17431e-16 5.93313e-08 -5.77554e-09 4.74127e-18 -1.31253e-08)
(1.62795e-08 -5.46324e-18 7.27307e-08 -3.77592e-09 -2.90825e-18 -1.25036e-08)
(8.23667e-09 4.61844e-17 8.72822e-08 9.5106e-10 -3.0662e-18 -9.18773e-09)
(9.29714e-09 -3.9903e-18 1.01275e-07 1.20512e-09 -3.88053e-19 -1.05023e-08)
(1.03949e-08 -7.32764e-18 1.15878e-07 1.48354e-09 4.81887e-19 -1.18784e-08)
(1.15305e-08 1.34682e-17 1.3113e-07 1.78319e-09 -2.28454e-18 -1.33137e-08)
(1.27033e-08 4.57436e-17 1.47106e-07 2.10182e-09 -3.81722e-18 -1.48051e-08)
(1.39096e-08 6.77792e-17 1.63871e-07 2.43715e-09 -4.13718e-18 -1.63468e-08)
(1.51451e-08 3.62574e-17 1.81525e-07 2.78822e-09 -2.59739e-18 -1.79333e-08)
(1.64027e-08 2.04856e-18 2.0019e-07 3.15648e-09 -3.97352e-19 -1.95592e-08)
(1.7681e-08 7.6776e-18 2.20027e-07 3.54261e-09 -6.44755e-19 -2.12236e-08)
(1.8978e-08 -1.91054e-17 2.41247e-07 3.95076e-09 1.24614e-18 -2.29287e-08)
(2.029e-08 1.76106e-17 2.641e-07 4.38854e-09 -1.84237e-18 -2.46785e-08)
(2.16169e-08 1.53588e-17 2.88907e-07 4.86538e-09 -1.09002e-18 -2.64823e-08)
(2.29587e-08 -1.34032e-18 3.16042e-07 5.39398e-09 -1.23043e-18 -2.83526e-08)
(2.43135e-08 1.98647e-17 3.45923e-07 5.98918e-09 -2.03114e-18 -3.03027e-08)
(2.56751e-08 1.74997e-17 3.79016e-07 6.66938e-09 -1.67297e-18 -3.23445e-08)
(2.70283e-08 4.67745e-18 4.15788e-07 7.45568e-09 -8.4955e-19 -3.4484e-08)
(2.83484e-08 9.87427e-18 4.56763e-07 8.3742e-09 -1.56113e-18 -3.67226e-08)
(2.95997e-08 6.79283e-18 5.0245e-07 9.45465e-09 -8.87716e-19 -3.90543e-08)
(3.0723e-08 5.64558e-18 5.53046e-07 1.07197e-08 -7.36038e-19 -4.14427e-08)
(3.16517e-08 1.65222e-17 6.09624e-07 1.22314e-08 -9.40114e-19 -4.38831e-08)
(3.23214e-08 1.45675e-17 6.72745e-07 1.40414e-08 -5.67546e-19 -4.63628e-08)
(3.26075e-08 1.2958e-17 7.42792e-07 1.62039e-08 -2.22148e-19 -4.88114e-08)
(3.23688e-08 6.9867e-18 8.21031e-07 1.88239e-08 5.9805e-19 -5.11927e-08)
(3.14537e-08 -8.07814e-18 9.09392e-07 2.20602e-08 1.53954e-18 -5.35139e-08)
(2.96888e-08 -1.86994e-17 1.00904e-06 2.6068e-08 2.14332e-18 -5.57567e-08)
(2.67549e-08 -1.02329e-17 1.12407e-06 3.11988e-08 1.82575e-18 -5.79537e-08)
(2.24322e-08 7.10285e-19 1.25738e-06 3.78294e-08 1.72402e-18 -6.02615e-08)
(1.62798e-08 2.08288e-17 1.41483e-06 4.66331e-08 1.19559e-18 -6.29129e-08)
(7.95627e-09 6.2143e-18 1.60321e-06 5.8565e-08 2.50342e-18 -6.65212e-08)
(-2.8307e-09 -9.74193e-18 1.83135e-06 7.50715e-08 3.258e-18 -7.22408e-08)
(-1.60496e-08 -3.27805e-17 2.1107e-06 9.83725e-08 5.99104e-18 -8.23229e-08)
(-3.08378e-08 -2.26021e-17 2.4555e-06 1.31858e-07 6.99608e-18 -1.01021e-07)
(-4.46024e-08 -3.68826e-17 2.88314e-06 1.80713e-07 1.04985e-17 -1.3611e-07)
(-5.1442e-08 -6.69984e-17 3.41361e-06 2.52748e-07 1.69128e-17 -2.01307e-07)
(-4.00024e-08 -7.40536e-17 4.06954e-06 3.59705e-07 2.67677e-17 -3.19703e-07)
(1.03445e-08 -6.18455e-17 4.87028e-06 5.17966e-07 4.0984e-17 -5.2831e-07)
(1.34584e-07 -1.2941e-16 5.8171e-06 7.4651e-07 8.7745e-17 -8.81093e-07)
(3.79417e-07 -2.27277e-16 6.91677e-06 1.07321e-06 1.62291e-16 -1.45263e-06)
(7.73537e-07 -3.04903e-16 8.20656e-06 1.54853e-06 2.86437e-16 -2.32207e-06)
(-1.13763e-08 1.73029e-17 -1.00214e-08 1.23026e-10 1.22318e-18 1.12532e-08)
(-3.60045e-10 -2.62269e-18 -9.66117e-10 4.21877e-12 7.84627e-20 3.55826e-10)
(4.1049e-11 1.17032e-16 2.76358e-10 1.38047e-11 -1.14953e-17 -5.48537e-11)
(1.64229e-09 -9.67326e-17 8.64589e-09 3.69495e-11 9.22866e-18 -1.67924e-09)
(3.38836e-09 -1.8947e-16 1.7645e-08 -1.68075e-10 1.57403e-17 -3.22028e-09)
(1.43728e-08 -1.52483e-17 2.61495e-08 -5.04028e-09 -1.29247e-19 -9.33254e-09)
(1.65259e-08 2.11509e-17 3.63964e-08 -5.47134e-09 -3.23795e-18 -1.10545e-08)
(1.86743e-08 -3.60515e-18 4.70696e-08 -5.89602e-09 -2.02708e-18 -1.27783e-08)
(2.10366e-08 -1.98272e-17 5.81241e-08 -6.41228e-09 -1.25459e-18 -1.46243e-08)
(1.14515e-08 -1.81144e-18 7.10814e-08 -9.51549e-10 -2.51765e-19 -1.04999e-08)
(9.29402e-09 2.58142e-17 8.36548e-08 8.3684e-10 -1.3674e-18 -1.01309e-08)
(1.03792e-08 2.21354e-17 9.63539e-08 1.04096e-09 -7.11764e-19 -1.14201e-08)
(1.14961e-08 -1.11135e-17 1.09643e-07 1.26266e-09 1.90742e-18 -1.27587e-08)
(1.26459e-08 -9.05958e-18 1.23587e-07 1.50036e-09 1.77342e-18 -1.41463e-08)
(1.38252e-08 1.26659e-17 1.38235e-07 1.75212e-09 4.02902e-19 -1.55773e-08)
(1.50293e-08 3.13187e-17 1.53671e-07 2.01712e-09 -9.44067e-19 -1.70464e-08)
(1.62528e-08 8.25509e-18 1.69999e-07 2.29539e-09 6.5043e-19 -1.85482e-08)
(1.7487e-08 8.66389e-18 1.8736e-07 2.58986e-09 6.33466e-19 -2.00769e-08)
(1.87315e-08 8.3163e-18 2.05943e-07 2.90181e-09 8.42518e-19 -2.16333e-08)
(1.99804e-08 -1.33322e-17 2.25972e-07 3.23656e-09 2.40411e-18 -2.3217e-08)
(2.12276e-08 -2.23098e-17 2.47737e-07 3.60258e-09 2.44701e-18 -2.48301e-08)
(2.2468e-08 -2.49762e-17 2.71577e-07 4.00923e-09 2.59711e-18 -2.64772e-08)
(2.36907e-08 -8.78258e-18 2.97867e-07 4.46863e-09 1.72302e-18 -2.81593e-08)
(2.48798e-08 -8.67233e-18 3.27026e-07 4.99479e-09 1.71984e-18 -2.98746e-08)
(2.60078e-08 -1.53946e-17 3.59464e-07 5.60346e-09 2.04805e-18 -3.16112e-08)
(2.7035e-08 -3.41119e-18 3.95661e-07 6.31526e-09 1.57732e-18 -3.33503e-08)
(2.79072e-08 3.93967e-18 4.36078e-07 7.15346e-09 1.39893e-18 -3.50607e-08)
(2.85403e-08 -1.38275e-17 4.80825e-07 8.13363e-09 2.36233e-18 -3.66739e-08)
(2.8851e-08 -1.34922e-17 5.31105e-07 9.31227e-09 2.31328e-18 -3.81633e-08)
(2.87361e-08 -1.31809e-17 5.87379e-07 1.07291e-08 2.26093e-18 -3.94652e-08)
(2.80274e-08 -5.33162e-18 6.50013e-07 1.24284e-08 1.93887e-18 -4.04558e-08)
(2.65277e-08 3.58252e-18 7.20359e-07 1.45024e-08 1.67664e-18 -4.10301e-08)
(2.39965e-08 -3.83292e-18 8.00345e-07 1.70875e-08 1.97128e-18 -4.1084e-08)
(2.01381e-08 -1.79003e-17 8.90805e-07 2.03027e-08 2.6242e-18 -4.04408e-08)
(1.44455e-08 -1.89379e-17 9.95972e-07 2.44594e-08 2.64478e-18 -3.89048e-08)
(6.44796e-09 -1.54662e-17 1.11802e-06 2.98485e-08 2.59017e-18 -3.62965e-08)
(-4.6754e-09 -8.54695e-18 1.26258e-06 3.70413e-08 2.27843e-18 -3.23659e-08)
(-1.97938e-08 -2.23651e-17 1.43563e-06 4.6819e-08 2.9552e-18 -2.70252e-08)
(-3.99509e-08 -2.71408e-17 1.64514e-06 6.03757e-08 3.72003e-18 -2.04248e-08)
(-6.6191e-08 -1.57679e-17 1.90157e-06 7.9555e-08 3.86848e-18 -1.3364e-08)
(-9.91744e-08 -4.88559e-18 2.2181e-06 1.07189e-07 5.02618e-18 -8.01471e-09)
(-1.38451e-07 8.78214e-18 2.61115e-06 1.47656e-07 6.36092e-18 -9.20526e-09)
(-1.8105e-07 -4.85478e-18 3.10022e-06 2.07651e-07 1.20872e-17 -2.66009e-08)
(-2.19573e-07 3.13749e-18 3.7087e-06 2.97482e-07 2.01074e-17 -7.79097e-08)
(-2.38044e-07 3.7977e-17 4.45799e-06 4.31824e-07 3.4669e-17 -1.9378e-07)
(-2.05289e-07 8.32894e-17 5.3529e-06 6.27965e-07 6.02089e-17 -4.22676e-07)
(-7.97162e-08 1.28724e-16 6.4099e-06 9.13065e-07 1.06523e-16 -8.33349e-07)
(1.58463e-07 2.21648e-16 7.68894e-06 1.34148e-06 1.88658e-16 -1.49994e-06)
(-1.87444e-08 -8.75204e-18 -1.30361e-08 2.04322e-10 7.90536e-18 1.85401e-08)
(-7.09241e-10 1.91907e-17 -1.48381e-09 5.25639e-12 -8.52248e-18 7.03984e-10)