/*--------------------------------*- C++ -*----------------------------------*\
| =========                 |                                                 |
| \\      /  F ield         | OpenFOAM: The Open Source CFD Toolbox           |
|  \\    /   O peration     | Version:  2212                                  |
|   \\  /    A nd           | Website:  www.openfoam.com                      |
|    \\/     M anipulation  |                                                 |
\*---------------------------------------------------------------------------*/
FoamFile
{
    version     2.0;
    format      ascii;
    arch        "LSB;label=32;scalar=64";
    class       volScalarField;
    location    "10000";
    object      nut;
}
// * * * * * * * * * * * * * * * * * * * * * * * * * * * * * * * * * * * * * //

dimensions      [0 2 -1 0 0 0 0];

internalField   nonuniform List<scalar> 
18080
(
3.52951e-08
4.10849e-08
5.33406e-08
4.77092e-08
3.90192e-08
3.27082e-08
2.7947e-08
2.42732e-08
2.13924e-08
1.91062e-08
1.72793e-08
1.58073e-08
1.46134e-08
1.36399e-08
1.28429e-08
1.2188e-08
1.16477e-08
1.12e-08
1.08262e-08
1.05105e-08
1.02391e-08
1.00006e-08
9.78649e-09
9.59112e-09
9.41294e-09
9.25429e-09
9.12152e-09
9.02316e-09
8.96927e-09
8.97232e-09
9.043e-09
9.19217e-09
9.43275e-09
9.7793e-09
1.02502e-08
1.08718e-08
1.16783e-08
1.27179e-08
1.40539e-08
1.57692e-08
1.79683e-08
2.07774e-08
2.43383e-08
2.87928e-08
3.42537e-08
4.07401e-08
4.81927e-08
5.63663e-08
3.55166e-08
4.10934e-08
5.22257e-08
4.90818e-08
4.04408e-08
3.41312e-08
2.93531e-08
2.56461e-08
2.27135e-08
2.03541e-08
1.84319e-08
1.68461e-08
1.55208e-08
1.44002e-08
1.34428e-08
1.26173e-08
1.19004e-08
1.12743e-08
1.07257e-08
1.02447e-08
9.8237e-09
9.45734e-09
9.14184e-09
8.87475e-09
8.65482e-09
8.48186e-09
8.35695e-09
8.28182e-09
8.25958e-09
8.2959e-09
8.3969e-09
8.57103e-09
8.83071e-09
9.19154e-09
9.6739e-09
1.03064e-08
1.11251e-08
1.21792e-08
1.35317e-08
1.52631e-08
1.74722e-08
2.02727e-08
2.37812e-08
2.80905e-08
3.32261e-08
3.90749e-08
4.5405e-08
5.17413e-08
3.54419e-08
4.07554e-08
5.15862e-08
4.96327e-08
4.08512e-08
3.44334e-08
2.95671e-08
2.5788e-08
2.27975e-08
2.0393e-08
1.8437e-08
1.68279e-08
1.54886e-08
1.43621e-08
1.34058e-08
1.25875e-08
1.18829e-08
1.12734e-08
1.07448e-08
1.02862e-08
9.88924e-09
9.54775e-09
9.25704e-09
9.01387e-09
8.81626e-09
8.66334e-09
8.55566e-09
8.49452e-09
8.48263e-09
8.5255e-09
8.62932e-09
8.80258e-09
9.0579e-09
9.41127e-09
9.88333e-09
1.05034e-08
1.13078e-08
1.23464e-08
1.36833e-08
1.54e-08
1.75976e-08
2.03945e-08
2.39164e-08
2.82737e-08
3.35226e-08
3.95948e-08
4.63111e-08
5.31687e-08
3.55217e-08
4.08288e-08
5.16198e-08
4.9692e-08
4.09221e-08
3.44733e-08
2.96139e-08
2.58416e-08
2.28453e-08
2.04359e-08
1.84757e-08
1.68625e-08
1.55192e-08
1.43883e-08
1.3427e-08
1.26032e-08
1.18923e-08
1.12756e-08
1.07391e-08
1.02718e-08
9.8656e-09
9.51429e-09
9.21339e-09
8.95982e-09
8.75172e-09
8.58838e-09
8.47044e-09
8.39929e-09
8.37774e-09
8.41122e-09
8.50587e-09
8.67018e-09
8.9166e-09
9.26094e-09
9.72382e-09
1.03342e-08
1.11286e-08
1.21569e-08
1.34837e-08
1.51922e-08
1.73872e-08
2.01944e-08
2.37543e-08
2.82037e-08
3.36415e-08
4.00611e-08
4.73637e-08
5.50579e-08
3.55791e-08
4.0804e-08
5.15047e-08
4.98154e-08
4.10259e-08
3.45543e-08
2.96738e-08
2.58884e-08
2.28919e-08
2.04731e-08
1.85046e-08
1.68844e-08
1.5535e-08
1.4399e-08
1.34337e-08
1.26065e-08
1.18931e-08
1.12747e-08
1.07372e-08
1.02696e-08
9.86376e-09
9.51337e-09
9.21394e-09
8.9623e-09
8.75654e-09
8.59588e-09
8.48088e-09
8.41286e-09
8.39459e-09
8.43143e-09
8.52954e-09
8.69741e-09
8.94761e-09
9.29612e-09
9.76379e-09
1.03801e-08
1.11821e-08
1.22207e-08
1.35622e-08
1.52923e-08
1.75202e-08
2.03788e-08
2.40201e-08
2.86e-08
3.42474e-08
4.09985e-08
4.88157e-08
5.72081e-08
3.57188e-08
4.0892e-08
5.15526e-08
4.9835e-08
4.10616e-08
3.45952e-08
2.97136e-08
2.59173e-08
2.29235e-08
2.05002e-08
1.85275e-08
1.69035e-08
1.55507e-08
1.44117e-08
1.34437e-08
1.26141e-08
1.18984e-08
1.12779e-08
1.07384e-08
1.02689e-08
9.86117e-09
9.50892e-09
9.20759e-09
8.95401e-09
8.74622e-09
8.58342e-09
8.46615e-09
8.39569e-09
8.37481e-09
8.40882e-09
8.50381e-09
8.66829e-09
8.91478e-09
9.25917e-09
9.72231e-09
1.03336e-08
1.11302e-08
1.21632e-08
1.34991e-08
1.5225e-08
1.74521e-08
2.03177e-08
2.39826e-08
2.86182e-08
3.43799e-08
4.13434e-08
4.95371e-08
5.84991e-08
3.59419e-08
4.10373e-08
5.16515e-08
4.98359e-08
4.10927e-08
3.46374e-08
2.97566e-08
2.59563e-08
2.29462e-08
2.05307e-08
1.85538e-08
1.6926e-08
1.55696e-08
1.44273e-08
1.34562e-08
1.2624e-08
1.19059e-08
1.12833e-08
1.07419e-08
1.02709e-08
9.86174e-09
9.50832e-09
9.20602e-09
8.95161e-09
8.74313e-09
8.57976e-09
8.462e-09
8.39113e-09
8.36993e-09
8.40368e-09
8.49846e-09
8.66283e-09
8.90934e-09
9.25395e-09
9.71766e-09
1.03301e-08
1.11287e-08
1.21653e-08
1.35077e-08
1.52446e-08
1.74909e-08
2.03896e-08
2.41117e-08
2.88448e-08
3.47691e-08
4.19971e-08
5.06153e-08
6.01701e-08
3.6295e-08
4.12903e-08
5.18743e-08
4.97774e-08
4.10959e-08
3.4666e-08
2.97936e-08
2.5995e-08
2.29807e-08
2.05572e-08
1.85842e-08
1.69531e-08
1.55936e-08
1.44483e-08
1.34744e-08
1.26395e-08
1.1919e-08
1.12943e-08
1.07509e-08
1.02781e-08
9.8673e-09
9.51239e-09
9.20868e-09
8.95294e-09
8.74316e-09
8.5785e-09
8.45943e-09
8.38722e-09
8.36464e-09
8.39696e-09
8.49019e-09
8.6529e-09
8.89767e-09
9.24039e-09
9.7021e-09
1.03125e-08
1.11091e-08
1.21442e-08
1.34861e-08
1.52251e-08
1.74783e-08
2.03939e-08
2.41512e-08
2.89524e-08
3.50004e-08
4.24404e-08
5.14149e-08
6.14847e-08
3.68488e-08
4.16944e-08
5.22579e-08
4.96519e-08
4.10713e-08
3.46848e-08
2.98295e-08
2.6037e-08
2.30238e-08
2.05953e-08
1.86229e-08
1.6989e-08
1.56264e-08
1.4478e-08
1.35011e-08
1.26633e-08
1.19401e-08
1.13129e-08
1.07672e-08
1.02922e-08
9.87956e-09
9.52287e-09
9.21751e-09
8.96021e-09
8.74895e-09
8.58286e-09
8.46241e-09
8.38885e-09
8.36496e-09
8.39597e-09
8.48788e-09
8.64928e-09
8.89274e-09
9.23417e-09
9.69465e-09
1.0304e-08
1.11e-08
1.21355e-08
1.34797e-08
1.52248e-08
1.74914e-08
2.04339e-08
2.42419e-08
2.91351e-08
3.53418e-08
4.30423e-08
5.24362e-08
6.30862e-08
3.77103e-08
4.23211e-08
5.28739e-08
4.94327e-08
4.10064e-08
3.46887e-08
2.98629e-08
2.60831e-08
2.30748e-08
2.06459e-08
1.86668e-08
1.70365e-08
1.56711e-08
1.45197e-08
1.35396e-08
1.26986e-08
1.19724e-08
1.13422e-08
1.07938e-08
1.03162e-08
9.90112e-09
9.54218e-09
9.2347e-09
8.97538e-09
8.76218e-09
8.59422e-09
8.47194e-09
8.39656e-09
8.37091e-09
8.40017e-09
8.49026e-09
8.64982e-09
8.8914e-09
9.23084e-09
9.68928e-09
1.02966e-08
1.10908e-08
1.21252e-08
1.347e-08
1.52195e-08
1.74979e-08
2.04662e-08
2.43259e-08
2.93154e-08
3.56902e-08
4.3667e-08
5.35019e-08
6.4757e-08
3.90234e-08
4.32611e-08
5.38057e-08
4.90941e-08
4.08903e-08
3.46752e-08
2.9895e-08
2.61365e-08
2.31377e-08
2.07123e-08
1.87304e-08
1.71007e-08
1.57327e-08
1.45781e-08
1.35944e-08
1.27497e-08
1.20198e-08
1.1386e-08
1.08341e-08
1.03532e-08
9.93501e-09
9.57311e-09
9.26283e-09
9.00084e-09
8.78508e-09
8.61466e-09
8.49e-09
8.41231e-09
8.38443e-09
8.41149e-09
8.49935e-09
8.65664e-09
8.89593e-09
9.23294e-09
9.68891e-09
1.02937e-08
1.10857e-08
1.21188e-08
1.34644e-08
1.52192e-08
1.75121e-08
2.05123e-08
2.44356e-08
2.95437e-08
3.61253e-08
4.44399e-08
5.48066e-08
6.67809e-08
4.0978e-08
4.46289e-08
5.51509e-08
4.8611e-08
4.07112e-08
3.46402e-08
2.9926e-08
2.61996e-08
2.32164e-08
2.07979e-08
1.88169e-08
1.71819e-08
1.58162e-08
1.46581e-08
1.36703e-08
1.28212e-08
1.20867e-08
1.14483e-08
1.0892e-08
1.04068e-08
9.98446e-09
9.61865e-09
9.30465e-09
9.03911e-09
8.81995e-09
8.64628e-09
8.51849e-09
8.43778e-09
8.40699e-09
8.4312e-09
8.51616e-09
8.67052e-09
8.9068e-09
9.2406e-09
9.6932e-09
1.02945e-08
1.10832e-08
1.21138e-08
1.34593e-08
1.52189e-08
1.75271e-08
2.0563e-08
2.45597e-08
2.98072e-08
3.66347e-08
4.53541e-08
5.63554e-08
6.91893e-08
4.3789e-08
4.65501e-08
5.7001e-08
4.7967e-08
4.0458e-08
3.45783e-08
2.99544e-08
2.62737e-08
2.33137e-08
2.09066e-08
1.893e-08
1.72928e-08
1.59268e-08
1.47649e-08
1.37723e-08
1.29178e-08
1.21775e-08
1.15333e-08
1.09712e-08
1.04804e-08
1.00527e-08
9.68175e-09
9.36283e-09
9.09261e-09
8.86899e-09
8.69105e-09
8.55918e-09
8.47452e-09
8.43995e-09
8.46044e-09
8.54162e-09
8.69217e-09
8.92454e-09
9.25417e-09
9.70237e-09
1.02991e-08
1.10832e-08
1.21101e-08
1.34541e-08
1.52181e-08
1.75425e-08
2.06185e-08
2.47004e-08
3.01138e-08
3.72398e-08
4.64575e-08
5.82455e-08
7.21584e-08
4.76076e-08
4.91193e-08
5.58097e-08
4.7151e-08
4.01146e-08
3.44766e-08
2.99717e-08
2.63539e-08
2.34279e-08
2.10387e-08
1.90704e-08
1.74347e-08
1.60632e-08
1.49016e-08
1.39037e-08
1.30428e-08
1.22955e-08
1.16441e-08
1.10747e-08
1.05768e-08
1.01422e-08
9.76464e-09
9.43942e-09
9.16316e-09
8.9338e-09
8.7504e-09
8.61333e-09
8.5237e-09
8.48439e-09
8.5002e-09
8.57658e-09
8.72219e-09
8.94945e-09
9.27355e-09
9.71583e-09
1.03062e-08
1.10839e-08
1.21049e-08
1.34454e-08
1.52115e-08
1.75511e-08
2.06691e-08
2.48452e-08
3.04492e-08
3.79289e-08
4.77527e-08
6.05129e-08
7.57907e-08
5.23817e-08
5.23364e-08
5.38604e-08
4.62101e-08
3.97029e-08
3.43394e-08
2.9979e-08
2.64415e-08
2.35611e-08
2.11973e-08
1.92418e-08
1.7611e-08
1.62369e-08
1.50729e-08
1.40688e-08
1.32001e-08
1.24443e-08
1.17839e-08
1.12054e-08
1.06986e-08
1.02553e-08
9.86939e-09
9.53621e-09
9.25237e-09
9.01574e-09
8.82537e-09
8.68163e-09
8.5856e-09
8.54026e-09
8.55023e-09
8.62075e-09
8.76045e-09
8.98153e-09
9.29883e-09
9.73362e-09
1.03157e-08
1.10847e-08
1.20971e-08
1.34307e-08
1.51955e-08
1.75468e-08
2.07053e-08
2.49807e-08
3.07964e-08
3.8686e-08
4.92377e-08
6.3196e-08
8.02108e-08
5.48306e-08
5.60271e-08
5.1891e-08
4.51884e-08
3.9218e-08
3.41499e-08
2.99565e-08
2.65183e-08
2.36982e-08
2.13705e-08
1.94347e-08
1.78131e-08
1.64404e-08
1.52696e-08
1.42629e-08
1.33859e-08
1.26204e-08
1.19496e-08
1.13605e-08
1.08431e-08
1.03895e-08
9.99358e-09
9.65084e-09
9.358e-09
9.11295e-09
8.91461e-09
8.76322e-09
8.65971e-09
8.60687e-09
8.60912e-09
8.67172e-09
8.80358e-09
9.01676e-09
9.32559e-09
9.75116e-09
1.03229e-08
1.10805e-08
1.20809e-08
1.34033e-08
1.5161e-08
1.75175e-08
2.07098e-08
2.50813e-08
3.11194e-08
3.94648e-08
5.08642e-08
6.62661e-08
8.54503e-08
5.07184e-08
5.55321e-08
5.00005e-08
4.41138e-08
3.86439e-08
3.38761e-08
2.98696e-08
2.65536e-08
2.38138e-08
2.15374e-08
1.96325e-08
1.80276e-08
1.66618e-08
1.54894e-08
1.44789e-08
1.3594e-08
1.28185e-08
1.21366e-08
1.15358e-08
1.10065e-08
1.05413e-08
1.01347e-08
9.78158e-09
9.47827e-09
9.2229e-09
9.01471e-09
8.85403e-09
8.74193e-09
8.68184e-09
8.67705e-09
8.73167e-09
8.85458e-09
9.05792e-09
9.35593e-09
9.76986e-09
1.03288e-08
1.10721e-08
1.20571e-08
1.33634e-08
1.51074e-08
1.74596e-08
2.06738e-08
2.51292e-08
3.13852e-08
4.02121e-08
5.25585e-08
6.96363e-08
9.14427e-08
4.76674e-08
5.31088e-08
4.83789e-08
4.31038e-08
3.80398e-08
3.35446e-08
2.97311e-08
2.65553e-08
2.39141e-08
2.17039e-08
1.98404e-08
1.82594e-08
1.6905e-08
1.57343e-08
1.47183e-08
1.38277e-08
1.30417e-08
1.23476e-08
1.1734e-08
1.11923e-08
1.0714e-08
1.02937e-08
9.92788e-09
9.61342e-09
9.34758e-09
9.1293e-09
8.95887e-09
8.83709e-09
8.7667e-09
8.75181e-09
8.79742e-09
8.91269e-09
9.10785e-09
9.39526e-09
9.79623e-09
1.03399e-08
1.1066e-08
1.20316e-08
1.33167e-08
1.50387e-08
1.7374e-08
2.05912e-08
2.5104e-08
3.15472e-08
4.08374e-08
5.41618e-08
7.30438e-08
9.77757e-08
4.56409e-08
5.14019e-08
4.71371e-08
4.2226e-08
3.74317e-08
3.31601e-08
2.95388e-08
2.65197e-08
2.39956e-08
2.18664e-08
2.00551e-08
1.85055e-08
1.71672e-08
1.60016e-08
1.49824e-08
1.4085e-08
1.32883e-08
1.25818e-08
1.19541e-08
1.13969e-08
1.09052e-08
1.04723e-08
1.00938e-08
9.76702e-09
9.48963e-09
9.26043e-09
9.07969e-09
8.9483e-09
8.86819e-09
8.84304e-09
8.87733e-09
8.97997e-09
9.16326e-09
9.43928e-09
9.82817e-09
1.03557e-08
1.10616e-08
1.20031e-08
1.32596e-08
1.49485e-08
1.72485e-08
2.04383e-08
2.49593e-08
3.15151e-08
4.11694e-08
5.53582e-08
7.59039e-08
1.0341e-07
4.45926e-08
5.04426e-08
4.6312e-08
4.14913e-08
3.6809e-08
3.27078e-08
2.92813e-08
2.64386e-08
2.40506e-08
2.20173e-08
2.0269e-08
1.87582e-08
1.7441e-08
1.62837e-08
1.52638e-08
1.43603e-08
1.35528e-08
1.28321e-08
1.21907e-08
1.16193e-08
1.11123e-08
1.06651e-08
1.02729e-08
9.93195e-09
9.64062e-09
9.39816e-09
9.20505e-09
9.06254e-09
8.97323e-09
8.93909e-09
8.96319e-09
9.05479e-09
9.22522e-09
9.48568e-09
9.8575e-09
1.03671e-08
1.10522e-08
1.19665e-08
1.3188e-08
1.48324e-08
1.70776e-08
2.02063e-08
2.46771e-08
3.1249e-08
4.11225e-08
5.59677e-08
7.78256e-08
1.07464e-07
4.44685e-08
5.02195e-08
4.58887e-08
4.08656e-08
3.61373e-08
3.21683e-08
2.8952e-08
2.63094e-08
2.40762e-08
2.21521e-08
2.04763e-08
1.90109e-08
1.77192e-08
1.65741e-08
1.55563e-08
1.46455e-08
1.3828e-08
1.30952e-08
1.24384e-08
1.18519e-08
1.13287e-08
1.08645e-08
1.04561e-08
1.01005e-08
9.79572e-09
9.54054e-09
9.33529e-09
9.18139e-09
9.08141e-09
9.03602e-09
9.04902e-09
9.13139e-09
9.29177e-09
9.53898e-09
9.89359e-09
1.03806e-08
1.10396e-08
1.19269e-08
1.31121e-08
1.47053e-08
1.6881e-08
1.99195e-08
2.4285e-08
3.07758e-08
4.07196e-08
5.60053e-08
7.87725e-08
1.09682e-07
4.5214e-08
5.06897e-08
4.58048e-08
4.02724e-08
3.53658e-08
3.15261e-08
2.85538e-08
2.61378e-08
2.40749e-08
2.22702e-08
2.06741e-08
1.92593e-08
1.79967e-08
1.68658e-08
1.58528e-08
1.49362e-08
1.41086e-08
1.33625e-08
1.269e-08
1.20859e-08
1.15461e-08
1.10669e-08
1.06443e-08
1.02751e-08
9.95695e-09
9.68882e-09
9.47102e-09
9.30559e-09
9.19568e-09
9.1394e-09
9.13883e-09
9.20889e-09
9.35798e-09
9.59171e-09
9.93145e-09
1.03979e-08
1.10305e-08
1.18827e-08
1.3028e-08
1.45688e-08
1.66661e-08
1.95913e-08
2.38028e-08
3.01236e-08
4.00077e-08
5.557e-08
7.89205e-08
1.10281e-07
4.67807e-08
5.18026e-08
4.59705e-08
3.96162e-08
3.44526e-08
3.07844e-08
2.81037e-08
2.59372e-08
2.40544e-08
2.23747e-08
2.08632e-08
1.94998e-08
1.82692e-08
1.71578e-08
1.61463e-08
1.52248e-08
1.43872e-08
1.36264e-08
1.29384e-08
1.23192e-08
1.17647e-08
1.12707e-08
1.08335e-08
1.04503e-08
1.01171e-08
9.83459e-09
9.60531e-09
9.4286e-09
9.30955e-09
9.24257e-09
9.23132e-09
9.29109e-09
9.42836e-09
9.64548e-09
9.969e-09
1.04141e-08
1.10212e-08
1.18456e-08
1.29522e-08
1.44359e-08
1.64567e-08
1.92595e-08
2.32866e-08
2.93773e-08
3.91334e-08
5.49532e-08
7.87902e-08
1.10009e-07
4.90647e-08
5.34824e-08
4.62641e-08
3.88013e-08
3.33859e-08
2.99715e-08
2.76315e-08
2.5727e-08
2.40258e-08
2.24719e-08
2.10411e-08
1.97353e-08
1.85375e-08
1.7441e-08
1.64315e-08
1.55041e-08
1.46561e-08
1.38836e-08
1.31823e-08
1.25487e-08
1.19793e-08
1.14707e-08
1.10162e-08
1.0618e-08
1.02749e-08
9.9818e-09
9.73944e-09
9.5516e-09
9.42461e-09
9.34754e-09
9.32463e-09
9.37479e-09
9.50176e-09
9.70279e-09
1.0011e-08
1.04322e-08
1.1015e-08
1.18169e-08
1.2893e-08
1.4331e-08
1.62715e-08
1.8954e-08
2.27829e-08
2.86084e-08
3.82197e-08
5.44073e-08
7.87905e-08
1.09534e-07
5.19532e-08
5.56655e-08
4.65602e-08
3.77694e-08
3.21936e-08
2.9133e-08
2.71671e-08
2.55216e-08
2.39979e-08
2.25624e-08
2.12176e-08
1.9962e-08
1.87917e-08
1.77031e-08
1.66953e-08
1.57664e-08
1.4912e-08
1.41285e-08
1.34133e-08
1.27639e-08
1.21789e-08
1.16554e-08
1.11899e-08
1.07826e-08
1.04268e-08
1.01226e-08
9.86888e-09
9.6706e-09
9.53734e-09
9.45096e-09
9.41682e-09
9.45848e-09
9.57607e-09
9.76008e-09
1.00543e-08
1.0452e-08
1.10113e-08
1.17901e-08
1.28418e-08
1.42447e-08
1.61194e-08
1.86838e-08
2.23091e-08
2.78463e-08
3.7321e-08
5.4074e-08
7.90985e-08
1.08803e-07
5.52748e-08
5.64762e-08
4.67056e-08
3.65005e-08
3.09292e-08
2.83142e-08
2.67304e-08
2.5329e-08
2.39622e-08
2.26483e-08
2.13815e-08
2.01684e-08
1.90203e-08
1.79442e-08
1.69395e-08
1.60066e-08
1.51435e-08
1.43489e-08
1.3622e-08
1.29609e-08
1.23642e-08
1.18297e-08
1.13557e-08
1.09359e-08
1.05693e-08
1.0255e-08
9.99083e-09
9.78262e-09
9.6447e-09
9.54977e-09
9.50491e-09
9.53919e-09
9.64829e-09
9.81426e-09
1.00959e-08
1.04696e-08
1.10081e-08
1.17698e-08
1.28004e-08
1.41718e-08
1.5995e-08
1.84385e-08
2.1853e-08
2.70784e-08
3.64282e-08
5.39855e-08
7.96846e-08
1.07668e-07
5.34938e-08
5.32774e-08
4.65882e-08
3.50384e-08
2.96612e-08
2.75502e-08
2.63294e-08
2.51439e-08
2.39341e-08
2.27262e-08
2.15193e-08
2.03449e-08
1.92201e-08
1.81558e-08
1.71531e-08
1.62172e-08
1.53477e-08
1.45448e-08
1.38079e-08
1.31359e-08
1.25313e-08
1.19879e-08
1.15023e-08
1.10729e-08
1.0697e-08
1.03741e-08
1.01006e-08
9.88321e-09
9.74233e-09
9.63976e-09
9.58491e-09
9.61292e-09
9.71442e-09
9.86142e-09
1.01322e-08
1.04817e-08
1.10025e-08
1.17519e-08
1.2768e-08
1.4114e-08
1.58832e-08
1.82278e-08
2.14427e-08
2.63993e-08
3.59058e-08
5.50783e-08
8.25308e-08
1.0997e-07
5.03066e-08
5.03978e-08
4.61941e-08
3.35281e-08
2.84911e-08
2.69e-08
2.59987e-08
2.49914e-08
2.39283e-08
2.2803e-08
2.16516e-08
2.05111e-08
1.9404e-08
1.83483e-08
1.73471e-08
1.64086e-08
1.55331e-08
1.47223e-08
1.39765e-08
1.32991e-08
1.26854e-08
1.21337e-08
1.16416e-08
1.12069e-08
1.08265e-08
1.05001e-08
1.02225e-08
1.00007e-08
9.86258e-09
9.75745e-09
9.6975e-09
9.72454e-09
9.82381e-09
9.95564e-09
1.02225e-08
1.05539e-08
1.10677e-08
1.18182e-08
1.28369e-08
1.41807e-08
1.59246e-08
1.82118e-08
2.13063e-08
2.68857e-08
4.12454e-08
6.90015e-08
1.0672e-07
1.44892e-07
4.77435e-08
4.78952e-08
4.55665e-08
3.20805e-08
2.74651e-08
2.63745e-08
2.57344e-08
2.48914e-08
2.39303e-08
2.28742e-08
2.17657e-08
2.06486e-08
1.95555e-08
1.85128e-08
1.75267e-08
1.66148e-08
1.57838e-08
1.50443e-08
1.44063e-08
1.38731e-08
1.3445e-08
1.31187e-08
1.28857e-08
1.27348e-08
1.26516e-08
1.26262e-08
1.26397e-08
1.26917e-08
1.28367e-08
1.29831e-08
1.31486e-08
1.34112e-08
1.37512e-08
1.40878e-08
1.46375e-08
1.52383e-08
1.61352e-08
1.74035e-08
1.90939e-08
2.13e-08
2.41263e-08
2.77794e-08
3.29859e-08
6.11628e-08
1.73353e-07
3.40031e-07
5.31643e-07
7.13236e-07
4.56996e-08
4.58335e-08
4.48006e-08
3.08157e-08
2.66809e-08
2.6072e-08
2.56391e-08
2.49437e-08
2.40811e-08
2.31061e-08
2.20999e-08
2.11775e-08
2.05015e-08
2.03133e-08
2.09289e-08
2.27758e-08
2.62959e-08
3.18906e-08
3.9805e-08
5.00409e-08
6.23644e-08
7.62743e-08
9.10827e-08
1.06075e-07
1.20533e-07
1.33957e-07
1.45807e-07
1.55885e-07
1.65648e-07
1.7348e-07
1.79755e-07
1.86216e-07
1.92759e-07
1.9777e-07
2.06015e-07
2.13701e-07
2.25626e-07
2.42455e-07
2.64671e-07
2.93338e-07
3.29613e-07
3.77404e-07
4.52433e-07
8.99584e-07
2.66883e-06
6.4997e-06
1.32279e-05
8.2443e-06
4.42489e-08
4.43361e-08
4.39125e-08
3.00858e-08
2.6755e-08
2.68428e-08
2.67075e-08
2.63756e-08
2.62787e-08
2.73811e-08
3.19861e-08
4.47601e-08
7.38018e-08
1.31395e-07
2.33034e-07
3.94975e-07
6.28677e-07
9.36224e-07
1.30768e-06
1.72211e-06
2.15365e-06
2.57499e-06
2.9629e-06
3.30112e-06
3.57966e-06
3.79848e-06
3.95553e-06
4.05835e-06
4.15642e-06
4.2079e-06
4.22831e-06
4.26351e-06
4.3e-06
4.29314e-06
4.35713e-06
4.39084e-06
4.50341e-06
4.69343e-06
4.93853e-06
5.28227e-06
5.79119e-06
6.61787e-06
8.21298e-06
1.40508e-05
3.55784e-05
8.78691e-05
8.2092e-05
6.66224e-05
4.31498e-08
4.31027e-08
4.30837e-08
3.22734e-08
3.29669e-08
3.69489e-08
4.07641e-08
5.16467e-08
8.79429e-08
1.96978e-07
4.78949e-07
1.09801e-06
2.24629e-06
4.06817e-06
6.57612e-06
9.64881e-06
1.30536e-05
1.65252e-05
1.98193e-05
2.27448e-05
2.51949e-05
2.71234e-05
2.85469e-05
2.95214e-05
3.01183e-05
3.04382e-05
3.05203e-05
3.04633e-05
3.05638e-05
3.0479e-05
3.03482e-05
3.04488e-05
3.06703e-05
3.08623e-05
3.18912e-05
3.3025e-05
3.5239e-05
3.82265e-05
4.10466e-05
4.18526e-05
4.09681e-05
4.02097e-05
4.17585e-05
5.38807e-05
8.53618e-05
0.000126543
0.000192516
0.000260532
4.22535e-08
4.21065e-08
4.2366e-08
5.18287e-08
8.57958e-08
1.35231e-07
2.35692e-07
5.82075e-07
1.61004e-06
3.96484e-06
8.11395e-06
1.40081e-05
2.11877e-05
2.90765e-05
3.7103e-05
4.48126e-05
5.18387e-05
5.79561e-05
6.30611e-05
6.71347e-05
7.02717e-05
7.26059e-05
7.43153e-05
7.55751e-05
7.65331e-05
7.73394e-05
7.80236e-05
7.88294e-05
8.01365e-05
8.0985e-05
8.14318e-05
8.16807e-05
8.07622e-05
7.80867e-05
7.44072e-05
6.98496e-05
6.87878e-05
7.90509e-05
0.000114944
0.000190207
0.000171576
0.000144836
0.000148604
0.000183254
0.000250846
0.000330785
0.000410142
0.000451292
4.17113e-08
4.10807e-08
4.13343e-08
1.42629e-07
3.78905e-07
8.07078e-07
1.97298e-06
4.98928e-06
1.04766e-05
1.81308e-05
2.71662e-05
3.6737e-05
4.61573e-05
5.50043e-05
6.30643e-05
7.02906e-05
7.66921e-05
8.23289e-05
8.7194e-05
9.13505e-05
9.49973e-05
9.82838e-05
0.000101365
0.000104383
0.000107451
0.000110645
0.000113935
0.000117648
0.000122151
0.000126856
0.000131607
0.000135331
0.000135069
0.000127799
0.000115353
0.000103438
9.73284e-05
0.000108718
0.000138848
0.000178885
0.00023531
0.000303266
0.000366625
0.000421374
0.000474784
0.000517636
0.000551687
0.000587914
4.14214e-08
3.71022e-08
3.50259e-08
3.25715e-07
1.1442e-06
2.82897e-06
6.89667e-06
1.40309e-05
2.34243e-05
3.37187e-05
4.37605e-05
5.2885e-05
6.08389e-05
6.76121e-05
7.32944e-05
7.8055e-05
8.20862e-05
8.56072e-05
8.82592e-05
9.03896e-05
9.25548e-05
9.48746e-05
9.7414e-05
0.000100206
0.000103246
0.000106518
0.000110003
0.000113445
0.000116985
0.000120941
0.000125171
0.000130344
0.000137055
0.000144723
0.000150853
0.000152055
0.000149318
0.00015076
0.0001662
0.000190564
0.000213487
0.000233102
0.000249481
0.000267666
0.000290023
0.000315544
0.000347663
0.000387504
4.1599e-08
2.33929e-08
2.7604e-08
5.12583e-07
2.36182e-06
6.4515e-06
1.43907e-05
2.47449e-05
3.55199e-05
4.53266e-05
5.35865e-05
6.02207e-05
6.53726e-05
6.92947e-05
7.22761e-05
7.46168e-05
7.65844e-05
7.8436e-05
8.04026e-05
8.2639e-05
8.49142e-05
8.74405e-05
9.03153e-05
9.35436e-05
9.71165e-05
0.000101032
0.000105265
0.000109589
0.000114054
0.000118938
0.000124867
0.000132497
0.00014323
0.000154715
0.000164571
0.000173546
0.00018082
0.000176268
0.000177602
0.000193997
0.000212464
0.000229928
0.000248227
0.000269715
0.000294259
0.000318467
0.000343061
0.000366179
2.6061e-08
1.2074e-08
2.67767e-08
7.3699e-07
4.21799e-06
1.17227e-05
2.21364e-05
3.27822e-05
4.21102e-05
4.94024e-05
5.47279e-05
5.84706e-05
6.10113e-05
6.27487e-05
6.40464e-05
6.51907e-05
6.64098e-05
6.79022e-05
6.9813e-05
7.21913e-05
7.50352e-05
7.83188e-05
8.20166e-05
8.61065e-05
9.05803e-05
9.54525e-05
0.000100712
0.000106115
0.00011141
0.000116571
0.000122326
0.000130201
0.000142433
0.000159739
0.000175252
0.000188629
0.00020169
0.000216477
0.000240327
0.000267087
0.000293294
0.000319688
0.000349406
0.000382753
0.000416149
0.000444516
0.000466177
0.000477491
1.02783e-08
9.16229e-09
2.86121e-08
1.01435e-06
6.45692e-06
1.59803e-05
2.613e-05
3.48265e-05
4.16756e-05
4.64317e-05
4.93762e-05
5.10642e-05
5.20006e-05
5.2608e-05
5.31818e-05
5.39693e-05
5.51878e-05
5.69226e-05
5.91677e-05
6.18989e-05
6.5092e-05
6.87087e-05
7.27215e-05
7.71071e-05
8.18546e-05
8.696e-05
9.23965e-05
9.81431e-05
0.000104059
0.000109566
0.000113812
0.000119302
0.000128346
0.000143026
0.000164341
0.000189102
0.000216419
0.000256907
0.000302176
0.000343333
0.00037736
0.000404761
0.000426815
0.000445421
0.000466829
0.000490305
0.000509594
0.0005253
5.98589e-09
8.07631e-09
2.99231e-08
1.2454e-06
7.83731e-06
1.69531e-05
2.55229e-05
3.19537e-05
3.63225e-05
3.89643e-05
4.03524e-05
4.10268e-05
4.14181e-05
4.183e-05
4.24078e-05
4.32945e-05
4.46399e-05
4.64908e-05
4.88478e-05
5.16974e-05
5.49763e-05
5.86478e-05
6.26857e-05
6.70771e-05
7.18237e-05
7.68993e-05
8.22515e-05
8.79053e-05
9.39997e-05
0.000100338
0.000105598
0.000109336
0.000113011
0.000118983
0.000140178
0.000174591
0.000215631
0.000261792
0.000300818
0.000329639
0.000351849
0.000371285
0.000390832
0.000412989
0.00044043
0.00046794
0.000487564
0.000501201
4.59493e-09
7.03651e-09
2.78705e-08
1.24121e-06
7.49487e-06
1.52064e-05
2.15188e-05
2.55792e-05
2.79454e-05
2.92334e-05
2.99018e-05
3.03364e-05
3.07978e-05
3.14485e-05
3.23122e-05
3.3451e-05
3.49518e-05
3.68538e-05
3.91804e-05
4.19255e-05
4.50186e-05
4.84592e-05
5.2224e-05
5.63265e-05
6.07909e-05
6.55694e-05
7.06e-05
7.59026e-05
8.16899e-05
8.81994e-05
9.50875e-05
0.000100098
0.000103193
0.000104436
0.000114454
0.000148093
0.000196712
0.000246406
0.000285495
0.000312721
0.000333304
0.000352034
0.000369733
0.000384421
0.00039814
0.000410121
0.000417404
0.000424942
3.8188e-09
5.51623e-09
2.18356e-08
1.00789e-06
5.93008e-06
1.14807e-05
1.53825e-05
1.75569e-05
1.87279e-05
1.94136e-05
1.99077e-05
2.04128e-05
2.10543e-05
2.19088e-05
2.29529e-05
2.42259e-05
2.57838e-05
2.76592e-05
2.98761e-05
3.24213e-05
3.52253e-05
3.83269e-05
4.17295e-05
4.54595e-05
4.95543e-05
5.39367e-05
5.85404e-05
6.3404e-05
6.86756e-05
7.46232e-05
8.16296e-05
8.891e-05
9.3877e-05
9.43584e-05
9.51992e-05
0.000112308
0.000151805
0.00019714
0.000235639
0.00026371
0.000283274
0.000297075
0.000304527
0.000305338
0.000303719
0.000304957
0.000307637
0.000311482
3.10846e-09
3.75868e-09
1.36799e-08
6.28802e-07
3.7384e-06
7.02461e-06
9.06352e-06
1.01384e-05
1.076e-05
1.12211e-05
1.16644e-05
1.21823e-05
1.28336e-05
1.36583e-05
1.46489e-05
1.58311e-05
1.72402e-05
1.89041e-05
2.08458e-05
2.3054e-05
2.54743e-05
2.81595e-05
3.11348e-05
3.44212e-05
3.80508e-05
4.1953e-05
4.60531e-05
5.04256e-05
5.51492e-05
6.03415e-05
6.63308e-05
7.36486e-05
8.10328e-05
8.37977e-05
8.17683e-05
8.40353e-05
0.000100962
0.000128553
0.000158273
0.000180876
0.000195384
0.00020362
0.000205478
0.000199212
0.000195778
0.000199864
0.000208849
0.000219409
2.42327e-09
2.12535e-09
6.60397e-09
2.95984e-07
1.75356e-06
3.24563e-06
4.16959e-06
4.7186e-06
5.07112e-06
5.38624e-06
5.72572e-06
6.13088e-06
6.63172e-06
7.25277e-06
7.99796e-06
8.88028e-06
9.9318e-06
1.11773e-05
1.26395e-05
1.43239e-05
1.6214e-05
1.83456e-05
2.07456e-05
2.34307e-05
2.64259e-05
2.96841e-05
3.31416e-05
3.68799e-05
4.09476e-05
4.5355e-05
5.02054e-05
5.59793e-05
6.31324e-05
6.9114e-05
6.87579e-05
6.72575e-05
7.09659e-05
8.05765e-05
9.33372e-05
0.000105288
0.00011424
0.000121144
0.000126701
0.000130877
0.000136633
0.000145384
0.000155805
0.000166371
1.91377e-09
9.7669e-10
2.07005e-09
7.52213e-08
4.27795e-07
8.39887e-07
1.15092e-06
1.38483e-06
1.58605e-06
1.7887e-06
2.01186e-06
2.27231e-06
2.58525e-06
2.96537e-06
3.41681e-06
3.92125e-06
4.53567e-06
5.28108e-06
6.17831e-06
7.24129e-06
8.47444e-06
9.90376e-06
1.15419e-05
1.34123e-05
1.55399e-05
1.79157e-05
2.05212e-05
2.34048e-05
2.66022e-05
3.00965e-05
3.38889e-05
3.81294e-05
4.33302e-05
4.94831e-05
5.25125e-05
5.25702e-05
5.38586e-05
5.79193e-05
6.38954e-05
7.04614e-05
7.68932e-05
8.30047e-05
8.90768e-05
9.49815e-05
0.000101781
0.000109882
0.000117438
0.000124743
1.4985e-09
3.73235e-10
3.67767e-10
9.01769e-09
5.00758e-08
1.04124e-07
1.52102e-07
1.95044e-07
2.38111e-07
2.86665e-07
3.44948e-07
4.17891e-07
5.11383e-07
6.32587e-07
7.8809e-07
9.8434e-07
1.23704e-06
1.56114e-06
1.97292e-06
2.48692e-06
3.11347e-06
3.86893e-06
4.71995e-06
5.72325e-06
6.90848e-06
8.28541e-06
9.86023e-06
1.1665e-05
1.37277e-05
1.60407e-05
1.85831e-05
2.13784e-05
2.46125e-05
2.86435e-05
3.2549e-05
3.47846e-05
3.6645e-05
3.94548e-05
4.29703e-05
4.70413e-05
5.15247e-05
5.59846e-05
6.04307e-05
6.44448e-05
6.86219e-05
7.31946e-05
7.67005e-05
8.02547e-05
1.15847e-09
2.30844e-10
1.14288e-10
6.36228e-10
3.28145e-09
6.87369e-09
1.01558e-08
1.32126e-08
1.64135e-08
2.01754e-08
2.48866e-08
3.1056e-08
3.93778e-08
5.08227e-08
6.65775e-08
8.81908e-08
1.18635e-07
1.61795e-07
2.23029e-07
3.09238e-07
4.28812e-07
5.93422e-07
8.13663e-07
1.109e-06
1.50113e-06
2.01033e-06
2.65512e-06
3.45898e-06
4.43777e-06
5.58842e-06
6.84611e-06
8.24333e-06
9.83225e-06
1.17441e-05
1.39517e-05
1.59896e-05
1.78091e-05
1.97444e-05
2.18085e-05
2.40768e-05
2.65329e-05
2.88612e-05
3.10261e-05
3.27411e-05
3.41787e-05
3.55794e-05
3.65256e-05
3.78084e-05
1.08315e-09
2.18401e-10
9.88941e-11
6.36908e-11
1.30299e-10
2.59475e-10
3.86956e-10
5.11999e-10
6.46641e-10
8.04976e-10
1.00049e-09
1.2508e-09
1.58026e-09
2.02263e-09
2.62037e-09
3.43098e-09
4.56085e-09
6.15776e-09
8.43863e-09
1.17134e-08
1.64171e-08
2.32253e-08
3.29969e-08
4.72471e-08
6.81505e-08
9.86414e-08
1.42669e-07
2.06044e-07
2.95721e-07
4.19261e-07
5.8381e-07
8.00055e-07
1.08178e-06
1.45863e-06
1.94311e-06
2.5029e-06
3.13591e-06
3.85996e-06
4.64627e-06
5.4697e-06
6.31635e-06
7.08455e-06
7.70269e-06
8.05533e-06
8.20847e-06
8.45838e-06
8.76545e-06
9.44117e-06
1.14123e-09
2.31279e-10
1.04947e-10
5.06094e-11
5.20586e-11
9.21779e-11
1.3926e-10
1.89757e-10
2.46297e-10
3.12269e-10
3.91016e-10
4.86644e-10
6.0483e-10
7.52618e-10
9.38751e-10
1.17493e-09
1.47792e-09
1.87001e-09
2.3804e-09
3.04749e-09
3.92047e-09
5.06687e-09
6.57155e-09
8.5574e-09
1.11875e-08
1.46651e-08
1.92497e-08
2.53326e-08
3.32655e-08
4.35071e-08
5.67728e-08
7.36103e-08
9.44766e-08
1.20815e-07
1.52287e-07
1.88058e-07
2.31319e-07
2.78192e-07
3.29154e-07
3.81825e-07
4.33471e-07
4.77452e-07
5.05772e-07
5.02012e-07
4.72086e-07
4.71936e-07
5.10818e-07
6.33192e-07
3.12444e-08
5.32709e-09
2.53631e-09
1.80937e-09
1.51163e-09
1.37037e-09
1.3184e-09
1.34945e-09
1.45755e-09
1.65475e-09
1.99742e-09
2.69339e-09
5.28346e-09
9.8662e-09
2.60785e-09
6.38108e-11
8.38527e-11
1.05531e-10
3.65549e-10
8.15374e-10
1.55132e-09
2.80779e-09
5.00142e-09
8.90017e-09
1.58192e-08
2.81042e-08
5.04925e-08
9.71585e-08
2.20521e-07
7.89695e-07
3.12984e-08
5.64053e-09
2.50933e-09
1.76623e-09
1.47374e-09
1.34818e-09
1.32021e-09
1.38953e-09
1.55967e-09
1.8592e-09
2.39468e-09
3.54129e-09
6.87973e-09
1.164e-08
3.23743e-09
4.36359e-10
1.67777e-09
2.23718e-09
2.50316e-09
3.0502e-09
3.99645e-09
5.60831e-09
8.34469e-09
1.44033e-08
2.37933e-08
4.04294e-08
7.1298e-08
1.34769e-07
2.85913e-07
7.76328e-07
3.44601e-08
8.6285e-09
3.65272e-09
2.56687e-09
2.23499e-09
2.37672e-09
2.86869e-09
3.86048e-09
5.57675e-09
8.43997e-09
1.37466e-08
2.5739e-08
4.6176e-08
5.17816e-08
1.97131e-08
1.0078e-08
4.38224e-08
5.97213e-08
6.22462e-08
6.80105e-08
7.80817e-08
9.39539e-08
1.17093e-07
1.59009e-07
2.08358e-07
2.73815e-07
3.67595e-07
5.15669e-07
8.127e-07
1.24898e-06
3.84277e-08
1.47121e-08
8.23693e-09
7.13317e-09
7.80676e-09
1.02322e-08
1.48861e-08
2.30665e-08
3.65939e-08
5.84459e-08
9.72299e-08
1.77296e-07
2.77178e-07
2.65431e-07
1.32915e-07
1.03104e-07
4.58399e-07
6.33313e-07
6.61457e-07
7.0522e-07
7.68667e-07
8.52285e-07
9.52711e-07
1.09613e-06
1.24445e-06
1.42131e-06
1.66735e-06
2.06462e-06
2.98877e-06
4.18694e-06
4.19192e-08
2.25204e-08
1.66724e-08
1.76638e-08
2.26411e-08
3.27449e-08
5.0743e-08
8.10413e-08
1.29349e-07
2.0361e-07
3.25732e-07
5.42384e-07
7.61202e-07
7.21911e-07
4.32113e-07
5.14853e-07
2.65237e-06
3.48191e-06
3.45851e-06
3.40986e-06
3.39395e-06
3.42893e-06
3.51778e-06
3.70628e-06