/*--------------------------------*- C++ -*----------------------------------*\
| =========                 |                                                 |
| \\      /  F ield         | OpenFOAM: The Open Source CFD Toolbox           |
|  \\    /   O peration     | Version:  2212                                  |
|   \\  /    A nd           | Website:  www.openfoam.com                      |
|    \\/     M anipulation  |                                                 |
\*---------------------------------------------------------------------------*/
FoamFile
{
    version     2.0;
    format      ascii;
    arch        "LSB;label=32;scalar=64";
    class       volScalarField;
    location    "10000";
    object      omega;
}
// * * * * * * * * * * * * * * * * * * * * * * * * * * * * * * * * * * * * * //

dimensions      [0 0 -1 0 0 0 0];

internalField   nonuniform List<scalar> 
18080
(
335.02
335.304
336.299
338.057
340.473
343.599
347.486
352.179
357.715
363.844
369.003
373.302
376.847
379.738
382.071
383.928
385.385
386.506
387.347
387.953
388.363
388.607
388.707
388.683
388.545
388.304
387.966
387.539
387.029
386.443
385.794
385.092
384.354
383.596
382.837
382.096
381.389
380.735
380.145
379.628
379.19
378.832
378.553
378.349
378.214
378.142
378.126
378.159
335.02
335.29
336.199
337.872
340.168
343.132
346.804
351.223
356.419
362.411
368.086
372.808
376.684
379.819
382.318
384.276
385.781
386.91
387.731
388.299
388.661
388.854
388.905
388.835
388.659
388.386
388.024
387.576
387.05
386.453
385.794
385.086
384.344
383.585
382.828
382.091
381.39
380.74
380.154
379.64
379.203
378.845
378.566
378.36
378.224
378.15
378.13
378.157
335.01
335.256
336.116
337.755
340.014
342.937
346.568
350.945
356.1
362.058
367.736
372.464
376.348
379.496
382.01
383.985
385.51
386.659
387.501
388.09
388.472
388.685
388.755
388.703
388.542
388.283
387.931
387.493
386.973
386.381
385.726
385.021
384.283
383.529
382.776
382.042
381.344
380.697
380.111
379.596
379.158
378.797
378.514
378.305
378.166
378.09
378.07
378.098
335.011
335.257
336.111
337.741
339.988
342.891
346.502
350.858
355.99
361.92
367.604
372.338
376.23
379.384
381.903
383.884
385.411
386.563
387.406
387.995
388.378
388.591
388.66
388.608
388.447
388.188
387.836
387.398
386.879
386.287
385.633
384.93
384.194
383.443
382.693
381.963
381.268
380.623
380.04
379.528
379.091
378.733
378.453
378.247
378.112
378.042
378.028
378.066
335.013
335.257
336.104
337.727
339.965
342.855
346.447
350.784
355.898
361.809
367.501
372.243
376.14
379.3
381.824
383.809
385.34
386.496
387.342
387.936
388.322
388.538
388.611
388.562
388.404
388.148
387.8
387.364
386.848
386.259
385.609
384.909
384.177
383.429
382.683
381.956
381.265
380.623
380.043
379.534
379.1
378.746
378.47
378.27
378.141
378.078
378.073
378.12
335.019
335.269
336.119
337.742
339.977
342.861
346.443
350.764
355.865
361.76
367.457
372.204
376.107
379.272
381.801
383.79
385.326
386.485
387.336
387.932
388.322
388.541
388.617
388.571
388.416
388.163
387.817
387.384
386.871
386.285
385.638
384.942
384.214
383.47
382.728
382.004
381.317
380.679
380.102
379.597
379.168
378.819
378.549
378.356
378.235
378.18
378.185
378.243
335.03
335.29
336.149
337.775
340.01
342.892
346.47
350.782
355.863
361.746
367.452
372.208
376.119
379.291
381.827
383.823
385.364
386.53
387.385
387.987
388.381
388.605
388.685
388.643
388.492
388.242
387.9
387.471
386.962
386.381
385.738
385.047
384.324
383.584
382.847
382.129
381.445
380.812
380.24
379.74
379.318
378.976
378.715
378.532
378.422
378.379
378.396
378.468
335.047
335.324
336.202
337.837
340.078
342.962
346.539
350.848
355.919
361.788
367.506
372.274
376.195
379.378
381.924
383.928
385.478
386.651
387.513
388.121
388.521
388.75
388.835
388.797
388.65
388.405
388.067
387.642
387.138
386.562
385.924
385.239
384.521
383.787
383.055
382.342
381.664
381.036
380.47
379.977
379.562
379.229
378.978
378.807
378.711
378.681
378.713
378.799
335.074
335.376
336.286
337.937
340.188
343.079
346.66
350.97
356.04
361.897
367.634
372.418
376.356
379.553
382.111
384.127
385.688
386.87
387.741
388.357
388.764
388.999
389.089
389.057
388.915
388.674
388.341
387.921
387.422
386.851
386.219
385.54
384.828
384.1
383.374
382.666
381.994
381.371
380.812
380.326
379.92
379.598
379.359
379.202
379.122
379.108
379.156
379.26
335.116
335.455
336.415
338.09
340.359
343.263
346.855
351.171
356.245
362.1
367.856
372.666
376.626
379.843
382.419
384.451
386.025
387.219
388.101
388.726
389.141
389.383
389.479
389.452
389.315
389.079
388.75
388.335
387.841
387.276
386.649
385.975
385.269
384.547
383.826
383.123
382.456
381.839
381.286
380.807
380.41
380.099
379.874
379.733
379.669
379.674
379.74
379.863
335.181
335.576
336.609
338.318
340.614
343.54
347.148
351.478
356.562
362.424
368.21
373.054
377.044
380.288
382.888
384.939
386.531
387.74
388.633
389.269
389.692
389.941
390.043
390.02
389.888
389.655
389.33
388.919
388.428
387.867
387.244
386.575
385.872
385.153
384.436
383.736
383.073
382.46
381.911
381.439
381.051
380.75
380.539
380.414
380.369
380.392
380.478
380.621
335.282
335.756
336.896
338.653
340.985
343.941
347.574
351.925
357.026
362.903
368.737
373.619
377.65
380.929
383.558
385.635
387.246
388.472
389.379
390.024
390.455
390.71
390.817
390.798
390.667
390.436
390.113
389.703
389.214
388.653
388.032
387.363
386.662
385.944
385.226
384.527
383.863
383.251
382.705
382.236
381.854
381.563
381.364
381.255
381.228
381.27
381.376
381.541
335.436
336.025
337.31
339.124
341.501
344.494
348.159
352.538
357.664
363.563
369.464
374.396
378.48
381.803
384.469
386.575
388.21
389.453
390.374
391.029
391.467
391.726
391.835
391.816
391.685
391.452
391.127
390.714
390.223
389.659
389.035
388.363
387.658
386.935
386.213
385.508
384.84
384.223
383.674
383.205
382.826
382.541
382.352
382.257
382.247
382.308
382.433
382.619
335.666
336.415
337.809
339.7
342.138
345.182
348.892
353.311
358.474
364.406
370.393
375.4
379.541
382.92
385.632
387.774
389.437
390.701
391.636
392.3
392.743
393.004
393.112
393.09
392.955
392.717
392.385
391.966
391.467
390.896
390.263
389.582
388.867
388.134
387.401
386.684
386.004
385.376
384.818
384.343
383.961
383.678
383.496
383.412
383.417
383.493
383.637
383.843
335.992
336.952
338.454
340.431
342.937
346.041
349.804
354.271
359.479
365.453
371.546
376.648
380.86
384.307
387.072
389.255
390.948
392.233
393.181
393.853
394.298
394.556
394.66
394.631
394.486
394.238
393.894
393.462
392.949
392.364
391.715
391.018
390.285
389.533
388.78
388.043
387.342
386.695
386.12
385.631
385.24
384.953
384.773
384.696
384.712
384.803
384.964
385.19
336.35
337.565
339.171
341.231
343.808
346.977
350.801
355.327
360.59
366.617
372.835
378.049
382.355
385.871
388.7
390.932
392.66
393.969
394.931
395.609
396.055
396.309
396.405
396.366
396.209
395.947
395.588
395.139
394.608
394.003
393.333
392.613
391.857
391.079
390.299
389.534
388.805
388.132
387.534
387.026
386.622
386.328
386.147
386.076
386.103
386.209
386.387
386.634
336.559
337.972
339.698
341.861
344.531
347.787
351.696
356.303
361.645
367.745
374.113
379.463
383.887
387.493
390.401
392.694
394.467
395.806
396.787
397.475
397.923
398.175
398.264
398.215
398.045
397.768
397.392
396.925
396.374
395.747
395.054
394.309
393.527
392.72
391.911
391.116
390.357
389.656
389.033
388.505
388.087
387.786
387.606
387.543
387.584
387.705
387.903
388.173
336.746
338.29
340.133
342.404
345.178
348.539
352.553
357.264
362.703
368.896
375.436
380.945
385.508
389.226
392.223
394.589
396.415
397.791
398.796
399.497
399.949
400.198
400.28
400.224
400.047
399.761
399.374
398.892
398.32
397.668
396.948
396.174
395.36
394.521
393.677
392.846
392.053
391.319
390.667
390.116
389.68
389.37
389.187
389.13
389.183
389.319
389.533
389.824
336.893
338.543
340.487
342.86
345.745
349.228
353.367
358.199
363.755
370.058
376.793
382.481
387.204
391.055
394.157
396.607
398.495
399.915
400.947
401.662
402.123
402.379
402.465
402.405
402.22
401.922
401.521
401.023
400.439
399.773
399.033
398.229
397.38
396.501
395.617
394.743
393.908
393.134
392.446
391.863
391.403
391.075
390.884
390.826
390.885
391.03
391.256
391.562
336.985
338.705
340.725
343.193
346.197
349.819
354.104
359.08
364.771
371.199
378.144
384.03
388.928
392.929
396.153
398.698
400.657
402.125
403.193
403.935
404.411
404.668
404.747
404.675
404.475
404.159
403.737
403.216
402.606
401.913
401.148
400.323
399.447
398.534
397.606
396.688
395.809
394.993
394.266
393.65
393.162
392.813
392.61
392.55
392.614
392.766
393.001
393.317
337.014
338.762
340.828
343.383
346.519
350.302
354.755
359.893
365.735
372.302
379.467
385.562
390.648
394.813
398.173
400.821
402.859
404.39
405.499
406.262
406.744
407
407.07
406.986
406.769
406.434
405.989
405.443
404.806
404.083
403.285
402.425
401.515
400.571
399.61
398.653
397.731
396.872
396.105
395.452
394.932
394.56
394.342
394.277
394.344
394.504
394.747
395.067
336.98
338.711
340.797
343.437
346.724
350.692
355.335
360.651
366.656
373.37
380.758
387.068
392.347
396.689
400.194
402.956
405.082
406.671
407.816
408.598
409.089
409.343
409.405
409.309
409.075
408.721
408.254
407.682
407.017
406.264
405.412
404.502
403.56
402.578
401.581
400.593
399.639
398.739
397.929
397.235
396.678
396.275
396.037
395.963
396.032
396.199
396.447
396.771
336.889
338.563
340.648
343.38
346.846
351.028
355.878
361.383
367.555
374.419
381.998
388.523
394.008
398.537
402.191
405.067
407.276
408.922
410.103
410.906
411.404
411.657
411.711
411.602
411.339
410.941
410.455
409.861
409.169
408.384
407.516
406.576
405.581
404.544
403.494
402.45
401.446
400.508
399.652
398.907
398.302
397.858
397.588
397.499
397.569
397.745
398.003
398.33
336.756
338.342
340.412
343.256
346.934
351.353
356.422
362.118
368.458
375.469
383.18
389.919
395.608
400.307
404.097
407.08
409.368
411.07
412.288
413.112
413.618
413.871
413.888
413.74
413.479
413.089
412.581
411.961
411.242
410.427
409.524
408.543
407.498
406.406
405.294
404.187
403.115
402.1
401.169
400.348
399.67
399.167
398.86
398.757
398.836
399.04
399.325
399.672
336.599
338.071
340.12
343.102
347.024
351.696
356.985
362.869
369.37
376.522
384.363
391.305
397.175
402.026
405.944
409.033
411.401
413.159
414.407
415.231
415.72
415.949
415.966
415.842
415.57
415.168
414.643
414.001
413.254
412.403
411.45
410.402
409.275
408.086
406.869
405.653
404.471
403.345
402.305
401.388
400.635
400.077
399.746
399.654
399.776
400.029
400.353
400.723
336.433
337.728
339.758
342.909
347.106
352.04
357.543
363.608
370.266
377.557
385.515
392.643
398.682
403.678
407.713
410.89
413.319
415.114
416.388
417.239
417.752
418.001
418.057
417.934
417.659
417.248
416.705
416.033
415.238
414.32
413.285
412.146
410.928
409.66
408.379
407.111
405.882
404.707
403.611
402.641
401.844
401.256
400.917
400.845
401.012
401.305
401.648
402.012
336.158
337.206
339.264
342.661
347.184
352.399
358.126
364.377
371.198
378.63
386.721
394.051
400.279
405.443
409.62
412.915
415.446
417.33
418.68
419.593
420.183
420.502
420.594
420.496
420.228
419.799
419.216
418.486
417.627
416.645
415.545
414.343
413.065
411.74
410.412
409.097
407.818
406.584
405.422
404.386
403.537
402.92
402.57
402.533
402.774
403.118
403.48
403.838
335.926
336.789
338.947
342.707
347.66
353.238
359.263
365.785
372.864
380.554
388.915
396.644
403.255
408.778
413.291
416.896
419.706
421.837
423.393
424.495
425.191
425.538
425.592
425.405
425.013
424.444
423.713
422.83
421.826
420.696
419.449
418.106
416.697
415.25
413.822
412.409
411.034
409.699
408.433
407.302
406.377
405.715
405.353
405.434
405.966
406.445
406.833
407.199
335.811
336.568
338.982
343.357
349.065
355.358
362.085
369.34
377.174
385.671
394.915
403.869
411.604
418.124
423.46
427.68
430.88
433.179
434.736
435.68
436.121
436.162
435.863
435.262
434.459
433.511
432.436
431.241
429.972
428.607
427.15
425.632
424.081
422.515
421.014
419.535
418.107
416.716
415.395
414.219
413.272
412.624
412.352
413.712
417.692
419.535
420.279
421.074
335.69
336.331
338.969
343.979
350.443
357.437
364.87
372.836
381.391
390.615
400.575
410.537
419.105
426.275
431.995
435.623
438.38
440.471
442.061
443.297
444.327
445.247
446.108
446.946
447.766
448.555
449.273
449.863
450.381
450.728
450.864
450.852
450.727
450.44
450.253
449.96
449.76
449.643
449.725
450.196
451.27
453.284
457.25
482.709
539.435
573.81
607.208
652.843
335.579
336.125
339.043
345.039
352.278
359.7
367.385
375.579
384.372
393.876
402.532
411.473
419.786
427.925
436.593
446.683
459.244
475.237
495.326
519.708
548.122
579.897
614.098
649.689
685.531
720.596
753.84
784.348
813.359
839.316
861.848
882.191
900.483
915.516
931.963
946.394
963.065
982.856
1007.82
1039.75
1081.69
1141.08
1235.69
1486.45
1965.09
2418.78
2977.31
3592.42
335.501
336.13
340.565
350.993
361.337
369.573
377.111
385.335
394.971
407.482
425.631
454.066
498.233
563.614
653.139
765.207
896.102
1040.97
1194.97
1353.86
1514.68
1675.37
1834.6
1991.58
2143.36
2286.6
2420.41
2543.99
2665.45
2776.98
2876.44
2967.66
3047.58
3114.93
3198.53
3283.19
3393.64
3547.79
3753.75
3965.91
4251.12
4699.51
5433.99
6817.53
8925.47
10974.8
13193.8
15344.2
335.497
337.665
351.276
382.916
407.872
425.712
443.25
470.39
521.452
617.274
774.027
992.005
1256.36
1546.81
1844.94
2139.29
2425.2
2703.51
2977.7
3252.25
3532.49
3823
4127.25
4447.56
4784.16
5136.42
5500.87
5872.88
6259.78
6640.08
6998.8
7344.41
7674.39
8005.95
8385.97
8787.58
9272.84
9907.59
10699
11797.8
13478.9
15904.1
19291.1
23813.5
28874
33319.9
37051.4
40153.3
336.188
350.285
411.224
534.725
629.549
704.962
818.798
1039.76
1403.52
1881.62
2404.88
2909.46
3360.96
3756.05
4108.28
4438.08
4764.98
5105.51
5470.61
5869.78
6312.19
6804.73
7352.15
7957.2
8619.73
9337.93
10104.9
10907.5
11752.4
12613
13453.8
14295.4
15252.9
16403.1
17724.9
19115.2
20440
22019.4
24519.5
28588.9
33995.1
40211.2
46982.2
54186.4
61158.1
66379.3
70166.5
72605.1
342.948
426.48
683.671
1112.38
1460.09
1817.72
2417.5
3253.95
4144.81
4917.44
5515.28
5968.49
6334.01
6667.52
7009.66
7388.05
7821.77
8325
8908.62
9584.44
10361.8
11249.6
12254
13378.2
14621.8
15981.7
17446
18987.8
20611
22289.3
23968.8
25668.1
27622.3
29987.5
32638.6
35698.4
39155
43481.7
50793.5
60325
70492.3
80216.2
89037.7
97444.5
105020
110089
112904
113663
390.054
781.61
1664.61
2865.02
3885.35
5046.24
6472.04
7697.68
8521.32
9005.52
9326.64
9613.59
9929.09
10314.4
10796
11389.3
12108.7
12970.1
13992.8
15194.5
16587.5
18184.6
19993.4
22018
24258.4
26709.4
29351.2
32150.5
35107.7
38158.3
41225.3
44331.5
47562.5
51308.7
55802.5
61528.8
69447
81234.8
97397.5
113541
127721
140203
150722
159348
166345
170149
170962
169209
635.136
2063.64
4450.43
7085.68
9263.12
11332.9
12737
13393.7
13747.6
14091.3
14398.5
14718.3
15147.2
15720.6
16443.8
17361.6
18535.7
19978
21694
23705
26036.6
28706.3
31721.6
35088.2
38807.7
42868.7
47238.9
51887.6
56840.2
62016.8
67251.3
72384.7
77552.9
82690.6
88897.3
98398.6
113978
136764
161449
183643
201780
214513
223738
230806
235866
237689
236407
232434
1610.54
5698.8
10797.8
15309.5
18377.5
19980.8
20828.2
20854.7
20442.4
20380.6
20691.9
21311.7
22239.1
23463.7
24972.5
26724
28672.6
30891.2
33514.7
36633.9
40277.8
44454.3
49162.4
54408.3
60195.9
66503.1
73281.8
80496.6
88207.3
96381.2
104894
113549
121884
128514
135247
147468
170664
198420
225789
248294
264559
274664
280080
283879
287148
288131
286117
281308
4662.81
14051.7
22881.8
28882.5
31519.4
31808.4
30070.4
28780.9
28073.2
28111.4
28829.6
30117.8
31919.3
34209.5
36996.9
40214.8
43774.5
47746.8
52217.7
57232.3
62863.5
69190.8
76237.3
84057.5
92677.1
102077
112212
123001
134483
146611
159571
173579
187445
198241
204967
216039
239685
267634
294152
315645
330804
340145
345130
347988
350382
350040
346028
338662
12472.4
30394.9
43460.9
49887.7
48194.3
43502.3
40077.5
38563.7
38320.1
39074.6
40707.4
43065.4
46080.8
49732.6
54099.8
59163.3
64907.8
71389.9
78639.4
86690.2
95653.8
105600
116707
128987
142456
157060
172696
189272
206707
224766
243597
264562
288079
307994
313470
311167
323842
349723
376662
398232
413243
422681
429108
432799
434867
433163
426642
414801
29645.8
59399.8
70476.4
70843.3
64065.4
57387
54321.7
53758
54694.5
56723.9
59680
63457.3
68014.2
73352
79748.9
87148.1
95544.7
105018
115650
127591
141084
156104
172769
191054
210896
232555
255833
280515
306273
332472
358368
385499
417330
458182
478059
458778
448402
462622
485511
505981
520777
531267
540952
548891
554526
551836
540805
520684
63981.5
99437.1
101718
94008.8
84306.4
78706.4
77555.4
78866.9
81645.6
85590.1
90589.8
96601.9
103638
111739
121070
131641
143584
157014
172048
189035
208552
230266
254114
280115
308196
338756
371832
406753
443117
479987
515618
549813
587655
640387
704519
706578
672097
660875
668462
684272
701727
718024
735620
751016
759900
750313
724923
686024
129496
156552
144811
130006
120091
117327
118943
122720
127882
134409
142310
151633
162471
174928
189165
205198
223331
243735
266561
292040
320472
351791
385763
422495
461917
504705
551598
600819
651539
702736
752270
797978
842218
898409
993897
1.08234e+06
1.08009e+06
1.05825e+06
1.04602e+06
1.05339e+06
1.07434e+06
1.09315e+06
1.10929e+06
1.1152e+06
1.09732e+06
1.05083e+06
990616
921215
243288
252532
226194
207033
198437
197965
201636
207519
215336
225157
237095
251300
267974
287312
309533
334548
363085
395420
431778
472368
517340
566657
619733
676845
737795
802413
870505
940874
1.01191e+06
1.0827e+06
1.15106e+06
1.21503e+06
1.27248e+06
1.33138e+06
1.42361e+06
1.57181e+06
1.67697e+06
1.71785e+06
1.72808e+06
1.73517e+06
1.73935e+06
1.72592e+06
1.69251e+06
1.6412e+06
1.55776e+06
1.45679e+06
1.36567e+06
1.2698e+06
476371
471780
436769
420942
413398
409100
410239
415322
424100
436600
452927
473269
497947
527292
561759
601794
647987
700860
760863
828352
903458
986176
1.07488e+06
1.17073e+06
1.27329e+06
1.38145e+06
1.49389e+06
1.60886e+06
1.7229e+06
1.83471e+06
1.94122e+06
2.04079e+06
2.12986e+06
2.20385e+06
2.28144e+06
2.3969e+06
2.52338e+06
2.63528e+06
2.71429e+06
2.73378e+06
2.68354e+06
2.60573e+06
2.50764e+06
2.41133e+06
2.2998e+06
2.17023e+06
2.06014e+06
1.93395e+06
1.21853e+06
1.1685e+06
1.11782e+06
1.11456e+06
1.10911e+06
1.08821e+06
1.07887e+06
1.07932e+06
1.08868e+06
1.10638e+06
1.13209e+06
1.16566e+06
1.20725e+06
1.25701e+06
1.31546e+06
1.3831e+06
1.46078e+06
1.54942e+06
1.65e+06
1.76354e+06
1.8908e+06
2.03243e+06
2.18872e+06
2.35942e+06
2.54351e+06
2.73873e+06
2.94223e+06
3.15089e+06
3.35738e+06
3.55944e+06
3.74954e+06
3.92555e+06
4.08492e+06
4.22339e+06
4.3226e+06
4.41586e+06
4.50482e+06
4.61542e+06
4.70131e+06
4.71066e+06
4.62475e+06
4.50256e+06
4.35151e+06
4.19614e+06
4.03179e+06
3.85615e+06
3.70684e+06
3.5149e+06
4.56144e+06
4.40233e+06
4.23647e+06
4.07442e+06
4.12112e+06
4.02973e+06
3.97923e+06
3.96455e+06
3.98185e+06
4.02824e+06
4.10163e+06
4.20051e+06
4.32417e+06
4.47159e+06
4.64285e+06
4.83737e+06
5.05509e+06
5.29555e+06
5.55804e+06
5.84159e+06
6.14436e+06
6.46451e+06
6.79968e+06
7.14718e+06
7.50442e+06
7.86787e+06
8.23482e+06
8.60265e+06
8.96076e+06
9.31267e+06
9.65354e+06
9.96984e+06
1.02555e+07
1.05198e+07
1.07135e+07
1.08211e+07
1.08916e+07
1.09133e+07
1.0905e+07
1.08414e+07
1.06731e+07
1.04431e+07
1.01727e+07
9.84242e+06
9.45502e+06
9.07388e+06
8.79745e+06
8.5222e+06
3.20971e+07
3.09879e+07
2.98127e+07
2.86302e+07
2.76678e+07
2.70184e+07
2.66429e+07
2.65078e+07
2.65866e+07
2.68589e+07
2.73097e+07
2.7928e+07
2.87077e+07
2.96405e+07
3.07249e+07
3.19549e+07
3.33267e+07
3.48332e+07
3.64641e+07
3.82058e+07
4.00376e+07
4.19356e+07
4.38701e+07
4.58055e+07
4.7703e+07
4.95167e+07
5.12058e+07
5.2726e+07
5.40028e+07
5.50587e+07
5.58548e+07
5.63524e+07
5.65624e+07
5.65165e+07
5.61875e+07
5.56425e+07
5.48587e+07
5.38759e+07
5.27285e+07
5.14349e+07
5.00139e+07
4.85009e+07
4.69182e+07
4.52991e+07
4.36414e+07
4.19654e+07
4.05241e+07
3.93634e+07
467193
466350
465613
464904
464212
463536
462870
462213
461562
460915
460254
459533
458736
463055
545883
595766
585445
575690
566737
558745
551783
545851
540894
536820
533523
530890
528826
527301
526473
527744
81827.8
76934.3
75777.8
75232
74862.9
74498.8
74164
73857.1
73571
73303.9
73052.9
72819.5
72735.9
73706.8
85947.8
96679.2
94403.9
92476.5
90777.6
89292.5
88059.5
87105.1
86456.4
82509.7
82274.2
82560.1
83155.8
83875.4
83760.8
81980.1
29138.5
26943.3
25769.5
25290.1
25452.3
25121.2
24852.2
24644.9
24486
24373.6
24320.8
24379.4
24817.7
25864.1
28916.9
30000.5
28677.9
28011.3
27525.3
27159.6
26957.8
26951.7
27165.7
26989.8
27500.8
28080.2
28461
28185.8
26286.3
22198.1
14447.7
14568.2
13786.2
13166.4
12859
12526.5
12280.1
12116.3
12018.3
11981.7
12021
12184.7
12614.1
13468.2
14723.6
13554.5
12137.6
11852.8
11797.1
11831.5
11974.4
12216.5
12527.1
12711.1
12930.4
13003.9
12785
12052.8
10515.6
8557.62
8411.45
9335.15
9097.7
8677.45
8349.65
8059.33
7840.3
7692.2
7602.47
7563.94
7578.85
7644.54
7790.57
8377.9
9435.45
8319.51
6664.3
6324.83
6359.19
6462.84
6616.02
6785.6
6932.6
6976.66
6932.45
6759.77
6415.81
5839.67
5008.17
4281.09
5284.01
6357.67
6514.31
6350.3
6135.53
5924
5747.64
5612.14
5513.89
5446.69
5402.55
5352.59
5261.13
5632.89
6689.05
6221.55
4680.96
4075.18
4009.72
4036.64
4097.56
4151.24
4165.32
4109.22
3986.55
3796.33
3535.11
3197.64
2812.65
2546.2
3434.27
4378.87
4751.23
4809.74
4744.07
4633.13
4515.39
4402.41
4300.76
4207.77
4107.86
3953.87
3704.01
3916.99
4951.05
5056.63
3828.51
3044.23
2845.23
2777.62
2753.31
2728.95
2680.93
2597.4
2482.54
2343.45
2185.59
2013.92
1840.72
1732
2264.1
2938.29
3384.68
3577.85
3644.16
3638.3
3589.74
3512.63
3420.65
3314.92
3174.03
2947.77
2626.86
2740.94
3712.97
4191.54
3356.32
2525.06
2228.8
2089.67
2009.25
1944.02
1874.9
1795.45
1708.3
1618.61
1531.33
1449.52
1365.82
1318.47
1503.18
1941.88
2267.2
2486.04
2641.05
2721.38
2733.31
2696.8
2627.04
2524.06
2357.1
2096.29
1787.2
1845.42
2767.24
3411.92
2962.08
2227.68
1883.71
1702.74
1590.2
1506.15
1432.86
1364.12
1299.96
1242.67
1195.65
1153.31
1110.11
1089
1009.37
1281.56
1495.58
1650.18
1760.17
1827.56
1850.74
1841.06
1803.04
1738.01
1633.63
1461.15
1230.93
1259
2020.03
2690.79
2526.21
2001.6
1670.85
1474.21
1347.22
1255.75
1183.75
1124.12
1074.83
1036.12
1007.59
983.166
959.612
949.353
698.313
852.962
983.314
1082.8
1156.36
1206.02
1228.65
1231.5
1214.65
1177.61
1113.04
1000.64
844.148
860.726
1455.38
2073.25
2092.17
1779.94
1511.75
1325.65
1198.22
1106.24
1037.09
983.667
942.873
913.739
893.003
876.901
862.383
854.975
513.843
591.23
660.156
716.236
758.219
785.43
800.755
805.47
798.852
779.848
743.947
679.296
587.716
595.296
1050.36
1569.27
1689.15
1554.82
1369.07
1211.62
1094.39
1007.9
942.921
893.929
857.755
832.902
814.932
801.909
790.665
782.78
414.15
447.595
476.452
500.493
518.982
530.405
538.067
540.978
538.471
529.791
512.624
481.514
438.379
442.069
767.984
1176.5
1326.92
1299.45
1208.52
1097.54
1002.34
927.627
869.787
825.405
792.302
768.937
751.778
739.545
728.931
719.686
365.581
378.339
388.352
395.407
399.192
401.691
403.255
403.506
402.102
398.681
392.433
381.873
369.895
376.568
586.233
887.426
1026.37
1042.72
1020.49
964.839
901.449
844.802
797.992
759.999
730.475
708.534
692.088
679.618
668.929
658.99
345.195
349.336
352.016
353.527
353.956
354.109
353.986
353.555
352.77
351.569
349.832
347.525
347.848
363.551
482.008
685.084
794.449
823.893
826.347
811.442
783.222
749.287
716.879
687.844
663.615
644.543
629.456
617.572
607.705
598.678
338.018
339.261
339.841
339.971
339.97
339.868
339.687
339.444
339.155
338.848
338.569
338.565
341.794
358.856
425.319
551.188
627.865
654.716
663.577
662.012
655.172
641.204
623.594
604.911
587.852
573.656
561.893
552.646
545.336
538.863
335.925
336.37
336.512
336.545
336.526
336.468
336.385
336.292
336.207
336.163
336.235
336.69
339.945
355.48
394.974
467.962
515.201
533.902
540.89
541.336
538.142
534.154
526.487
517.069
508.084
500.446
494.109
489.429
486.126
483.253
335.4
335.656
335.752
335.784
335.779
335.749
335.705
335.659
335.627
335.641
335.777
336.283
339.087
352.576
378.374
419.004
445.107
455.678
458.931
458.251
455.179
451.279
447.955
444.47
441.969
440.216
439.127
438.904
439.311
439.581
335.266
335.472
335.563
335.593
335.591
335.568
335.532
335.494
335.472
335.495
335.637
336.12
338.45
349.302
368.158
390.907
404.401
409.609
410.589
409.524
407.422
404.906
403.216
402.506
403.247
404.504
406.138
408.162
410.34
412.079
335.207
335.387
335.472
335.5
335.497
335.475
335.441
335.406
335.387
335.411
335.549
335.996
337.897
346.368
360.972
374.513
381.374
383.718
383.763
382.898
381.798
380.841
380.336
381.063
383.106
385.588
388.207
390.929
393.561
395.666
335.164
335.322
335.399
335.424
335.421
335.399
335.367
335.335
335.319
335.343
335.475
335.884
337.411
343.848
355.367
364.326
368.029
369.027
368.772
368.176
367.696
367.57
367.963
369.197
371.525
374.413
377.268
380.054
382.627
384.673
335.128
335.266
335.335
335.358
335.354
335.334
335.305
335.276
335.263
335.288
335.412
335.78
336.988
341.757
350.776
357.376
359.724
360.198
359.922
359.544
359.395
359.639
360.372
361.692
363.861
366.788
369.564
372.168
374.501
376.339
335.101
335.219
335.28
335.301
335.298
335.28
335.253
335.229
335.218
335.243
335.357
335.684
336.625
340.073
346.99
352.2
354.022
354.379
354.206
354.003
354.029
354.408
355.2
356.441
358.212
360.587
363.178
365.532
367.588
369.193
335.08
335.181
335.235
335.254
335.251
335.234
335.212
335.191
335.183
335.207
335.31
335.593
336.315
338.751
343.915
348.121
349.739
350.146
350.116
350.056
350.178
350.583
351.313
352.371
353.76
355.516
357.564
359.656
361.438
362.813
335.064
335.151
335.198
335.214
335.211
335.197
335.177
335.16
335.154
335.178
335.269
335.507
336.054
337.735
341.477
344.839
346.331
346.824
346.931
346.984
347.161
347.546
348.17
349.026
350.087
351.327
352.729
354.195
355.577
356.657
335.053
335.126
335.165
335.179
335.177
335.165
335.148
335.134
335.131
335.153
335.231
335.426
335.835
336.968
339.596
342.209
343.558
344.113
344.323
344.459
344.665
345.013
345.527
346.195
346.987
347.867
348.793
349.727
350.601
351.282
335.044
335.105
335.137
335.148
335.146
335.136
335.123
335.113
335.111
335.131
335.196
335.352
335.652
336.399
338.184
340.141
341.308
341.877
342.151
342.338
342.555
342.861
343.276
343.787
344.367
344.985
345.606
346.199
346.727
347.138
335.038
335.087
335.111
335.12
335.118
335.111
335.101
335.093
335.094
335.111
335.164
335.284
335.5
335.982
337.153
338.559
339.516
340.053
340.352
340.562
340.776
341.041
341.371
341.756
342.176
342.604
343.018
343.4
343.732
343.986
335.032
335.07
335.088
335.094
335.093
335.087
335.081
335.076
335.078
335.092
335.134
335.223
335.375
335.681
336.421
337.387
338.129
338.6
338.891
339.103
339.303
339.528
339.787
340.075
340.375
340.669
340.944
341.192
341.403
341.564
335.027
335.055
335.067
335.071
335.07
335.067
335.062
335.06
335.063
335.075
335.106
335.171
335.275
335.466
335.918
336.55
337.094
337.478
337.739
337.936
338.115
338.302
338.504
338.717
338.928
339.13
339.313
339.474
339.61
339.713
335.022
335.041
335.048
335.051
335.051
335.049
335.046
335.046
335.049
335.059
335.083
335.127
335.196
335.314
335.58
335.976
336.352
336.646
336.863
337.034
337.188
337.339
337.494
337.649
337.798
337.935
338.058
338.164
338.252
338.319
335.018
335.029
335.033
335.034
335.034
335.034
335.033
335.034
335.037
335.045
335.062
335.092
335.136
335.208
335.361
335.598
335.844
336.055
336.225
336.364
336.489
336.608
336.724
336.836
336.94
337.034
337.116
337.187
337.245
337.289
335.015
335.02
335.021
335.022
335.022
335.022
335.023
335.024
335.027
335.034
335.046
335.066
335.093
335.136
335.222
335.359
335.511
335.655
335.778
335.885
335.982
336.072
336.157
336.237
336.309
336.374
336.429
336.476
336.515
336.544
335.012
335.013
335.013
335.013
335.014
335.014
335.015
335.017
335.02
335.025
335.034
335.046
335.063
335.088
335.136
335.212
335.303
335.395
335.48
335.557
335.627
335.693
335.754
335.81
335.86
335.904
335.941
335.972
335.998
336.018
335.009
335.008
335.007
335.007
335.008
335.009
335.01
335.012
335.015
335.019
335.025
335.033
335.043
335.057
335.083
335.125
335.177
335.233
335.288
335.341
335.39
335.435
335.478
335.516
335.55
335.579
335.604
335.625
335.642
335.655
335.008
335.006
335.004
335.004
335.005
335.006
335.007
335.009
335.011
335.014
335.018
335.023
335.029
335.038
335.052
335.075
335.104
335.136
335.17
335.204
335.236
335.267
335.295
335.32
335.343
335.362
335.378
335.392
335.404
335.413
335.006
335.004
335.003
335.003
335.004
335.004
335.006
335.007
335.009
335.011
335.014
335.017
335.021
335.026
335.033
335.045
335.061
335.08
335.1
335.12
335.141
335.16
335.178
335.194
335.208
335.221
335.231
335.241
335.248
335.255
335.005
335.004
335.003
335.003
335.003
335.004
335.005
335.006
335.007
335.009
335.011
335.013
335.015
335.018
335.022
335.029
335.037
335.047
335.059
335.071
335.083
335.095
335.106
335.116
335.125
335.133
335.14
335.146
335.151
335.155
335.004
335.003
335.002
335.002
335.003
335.003
335.004
335.005
335.006
335.007
335.009
335.01
335.011
335.013
335.015
335.019
335.023
335.029
335.035
335.042
335.049
335.056
335.063
335.069
335.074
335.079
335.083
335.087
335.09
335.092
335.004
335.003
335.002
335.002
335.003
335.003
335.004
335.004
335.005
335.006
335.007
335.008
335.009
335.01
335.011
335.013
335.015
335.018
335.022
335.026
335.03
335.034
335.038
335.041
335.045
335.047
335.05
335.052
335.054
335.056
335.003
335.002
335.002
335.002
335.002
335.003
335.003
335.003
335.004
335.004
335.005
335.006
335.006
335.007
335.008
335.008
335.01
335.011
335.013
335.015
335.017
335.02
335.022
335.024
335.026
335.027
335.029
335.03
335.031
335.033
335.002
335.002
335.002
335.002
335.002
335.002
335.003
335.003
335.003
335.004
335.004
335.005
335.005
335.006
335.006
335.007
335.007
335.008
335.009
335.01
335.012
335.013
335.014
335.016
335.017
335.018
335.019
335.019
335.02
335.021
335.001
335.001
335.001
335.001
335.001
335.002
335.002
335.002
335.002
335.002
335.003
335.003
335.003
335.003
335.003
335.004
335.004
335.004
335.005
335.006
335.006
335.007
335.008
335.008
335.009
335.009
335.01
335.01
335.01
335.011
335.001
335.001
335.001
335.001
335.002
335.002
335.002
335.002
335.002
335.002
335.003
335.003
335.003
335.003
335.003
335.004
335.004
335.004
335.004
335.005
335.005
335.005
335.006
335.006
335.006
335.007