/*--------------------------------*- C++ -*----------------------------------*\
| =========                 |                                                 |
| \\      /  F ield         | OpenFOAM: The Open Source CFD Toolbox           |
|  \\    /   O peration     | Version:  2212                                  |
|   \\  /    A nd           | Website:  www.openfoam.com                      |
|    \\/     M anipulation  |                                                 |
\*---------------------------------------------------------------------------*/
FoamFile
{
    version     2.0;
    format      ascii;
    arch        "LSB;label=32;scalar=64";
    class       volScalarField;
    location    "10000";
    object      p;
}
// * * * * * * * * * * * * * * * * * * * * * * * * * * * * * * * * * * * * * //

dimensions      [1 -1 -2 0 0 0 0];

internalField   nonuniform List<scalar> 
18080
(
121033
121032
121028
121023
121015
121005
120992
120975
120953
120927
120894
120854
120804
120744
120670
120581
120472
120341
120181
119989
119758
119482
119154
118766
118312
117786
117181
116494
115725
114876
113953
112968
111935
110873
109803
108750
107736
106783
105908
105124
104439
103854
103366
102967
102647
102393
102193
102036
121033
121032
121028
121023
121015
121005
120992
120975
120953
120927
120894
120854
120804
120744
120670
120581
120472
120341
120181
119989
119758
119482
119154
118767
118313
117787
117182
116496
115727
114878
113956
112971
111938
110875
109806
108753
107738
106784
105909
105125
104439
103854
103366
102967
102647
102392
102192
102036
121033
121032
121028
121023
121015
121005
120992
120975
120953
120927
120894
120854
120804
120744
120670
120581
120472
120341
120181
119989
119758
119483
119155
118768
118314
117788
117184
116498
115729
114881
113958
112973
111940
110877
109808
108754
107739
106785
105909
105124
104438
103853
103365
102966
102645
102391
102191
102035
121033
121032
121028
121023
121015
121005
120992
120975
120953
120927
120894
120854
120804
120744
120670
120581
120472
120341
120181
119989
119759
119483
119155
118769
118316
117790
117186
116500
115732
114884
113961
112976
111943
110880
109810
108756
107741
106786
105909
105124
104437
103852
103363
102964
102643
102389
102190
102034
121033
121032
121028
121023
121015
121005
120992
120975
120953
120927
120894
120854
120804
120744
120670
120581
120473
120341
120182
119990
119759
119484
119157
118770
118317
117792
117188
116503
115735
114887
113965
112980
111946
110883
109812
108757
107741
106785
105907
105121
104434
103848
103359
102960
102640
102386
102187
102031
121033
121032
121028
121023
121015
121005
120992
120975
120953
120927
120894
120854
120804
120744
120671
120581
120473
120341
120182
119991
119760
119485
119158
118772
118319
117794
117191
116506
115739
114891
113969
112984
111950
110886
109814
108758
107741
106783
105905
105117
104429
103843
103354
102954
102634
102381
102182
102027
121033
121032
121029
121023
121015
121005
120992
120975
120954
120927
120894
120854
120805
120744
120671
120582
120473
120342
120183
119992
119762
119487
119160
118774
118322
117798
117195
116511
115744
114896
113974
112988
111954
110889
109816
108758
107739
106780
105899
105111
104421
103834
103344
102945
102625
102372
102175
102020
121034
121032
121029
121023
121016
121005
120992
120975
120954
120927
120895
120854
120805
120745
120672
120582
120474
120343
120184
119993
119763
119489
119163
118777
118326
117802
117200
116516
115749
114902
113979
112993
111957
110891
109817
108757
107735
106774
105891
105100
104410
103821
103331
102932
102613
102361
102165
102012
121034
121032
121029
121024
121016
121006
120993
120976
120954
120928
120895
120855
120806
120746
120672
120583
120475
120344
120186
119995
119766
119492
119166
118782
118331
117808
117206
116523
115756
114908
113986
112998
111961
110893
109816
108753
107729
106764
105878
105085
104392
103802
103312
102913
102595
102345
102150
101999
121034
121033
121029
121024
121017
121006
120993
120976
120955
120929
120896
120856
120807
120747
120674
120585
120477
120346
120189
119998
119769
119496
119171
118787
118338
117815
117214
116531
115764
114916
113993
113004
111965
110894
109814
108747
107718
106750
105860
105063
104367
103776
103285
102887
102571
102323
102131
101983
121035
121033
121030
121025
121017
121007
120994
120977
120956
120930
120897
120857
120808
120749
120676
120587
120480
120350
120192
120002
119775
119502
119178
118795
118346
117824
117224
116541
115775
114926
114001
113010
111968
110894
109809
108737
107703
106729
105834
105032
104334
103741
103249
102852
102538
102294
102105
101961
121036
121034
121031
121026
121019
121009
120996
120979
120958
120932
120899
120860
120811
120751
120679
120591
120484
120354
120197
120008
119781
119510
119187
118805
118357
117836
117236
116554
115787
114937
114011
113017
111971
110892
109801
108722
107681
106700
105798
104992
104289
103694
103203
102807
102496
102256
102073
101933
121037
121036
121033
121028
121020
121011
120998
120981
120960
120934
120902
120863
120814
120755
120683
120596
120489
120361
120205
120017
119791
119520
119199
118818
118371
117851
117252
116570
115802
114951
114021
113024
111973
110887
109788
108701
107651
106661
105752
104938
104231
103634
103143
102750
102443
102209
102032
101899
121039
121038
121035
121030
121023
121013
121001
120984
120964
120938
120906
120867
120819
120761
120689
120602
120497
120369
120214
120027
119803
119534
119214
118834
118389
117870
117271
116589
115820
114966
114033
113031
111973
110879
109771
108674
107613
106612
105692
104871
104158
103558
103068
102679
102378
102152
101983
101859
121042
121040
121038
121033
121026
121017
121004
120988
120968
120943
120912
120873
120826
120768
120697
120611
120507
120380
120227
120041
119818
119551
119232
118855
118411
117893
117295
116612
115841
114985
114047
113038
111972
110868
109748
108638
107564
106550
105619
104788
104069
103466
102977
102593
102300
102084
101926
101812
121045
121044
121041
121037
121030
121021
121009
120994
120974
120949
120918
120880
120834
120777
120707
120622
120519
120394
120242
120058
119837
119572
119255
118880
118437
117920
117322
116638
115866
115006
114062
113045
111969
110853
109719
108594
107504
106475
105531
104689
103962
103356
102869
102492
102210
102006
101861
101759
121049
121048
121045
121041
121035
121027
121015
121000
120981
120957
120927
120889
120843
120787
120719
120635
120533
120410
120260
120078
119860
119597
119282
118909
118468
117952
117354
116670
115894
115029
114079
113053
111965
110835
109685
108543
107435
106388
105428
104573
103838
103229
102745
102376
102107
101918
101790
101703
121053
121052
121050
121046
121041
121033
121022
121008
120989
120965
120936
120900
120855
120800
120732
120650
120550
120428
120280
120101
119885
119625
119313
118941
118503
117988
117390
116704
115926
115056
114098
113061
111960
110814
109646
108484
107356
106289
105311
104442
103698
103086
102605
102246
101993
101823
101713
101643
121058
121057
121055
121052
121047
121040
121029
121016
120998
120975
120946
120911
120867
120813
120747
120666
120568
120448
120303
120126
119913
119655
119346
118977
118540
118027
117429
116742
115960
115084
114118
113070
111955
110791
109603
108420
107269
106181
105183
104299
103544
102929
102452
102105
101870
101721
101634
101583
121062
121062
121060
121057
121053
121047
121037
121024
121007
120985
120957
120922
120879
120827
120762
120683
120587
120469
120326
120152
119941
119687
119380
119014
118579
118067
117470
116781
115996
115114
114139
113079
111948
110767
109558
108352
107177
106066
105047
104146
103380
102761
102289
101955
101740
101617
101555
101525
121067
121066
121065
121063
121059
121054
121045
121033
121016
120995
120968
120934
120892
120841
120778
120700
120606
120491
120350
120178
119970
119718
119415
119052
118619
118109
117512
116821
116033
115145
114161
113089
111942
110742
109512
108283
107084
105949
104908
103988
103211
102586
102119
101799
101607
101513
101478
101470
121070
121070
121069
121068
121066
121061
121053
121041
121025
121004
120978
120945
120904
120854
120792
120717
120624
120511
120372
120204
119998
119750
119449
119088
118658
118149
117553
116861
116069
115176
114183
113099
111937
110718
109467
108214
106991
105831
104769
103830
103039
102409
101946
101641
101474
101411
101406
101421
121074
121074
121073
121073
121071
121067
121060
121049
121034
121013
120988
120955
120915
120866
120806
120732
120641
120530
120394
120227
120025
119779
119481
119123
118696
118188
117592
116900
116105
115206
114206
113110
111933
110697
109425
108149
106901
105718
104633
103676
102871
102234
101774
101484
101344
101314
101341
101378
121076
121076
121077
121077
121076
121073
121067
121056
121041
121021
120996
120965
120925
120877
120818
120745
120656
120547
120413
120249
120049
119806
119511
119155
118730
118224
117629
116936
116138
115235
114227
113121
111930
110677
109385
108088
106818
105611
104505
103529
102710
102066
101607
101331
101218
101225
101284
101342
121079
121079
121079
121080
121081
121079
121073
121062
121047
121028
121004
120973
120934
120887
120829
120757
120669
120562
120430
120268
120070
119829
119537
119184
118761
118257
117663
116969
116169
115262
114248
113131
111929
110661
109351
108034
106742
105514
104386
103392
102558
101906
101448
101185
101099
101145
101236
101312
121080
121081
121081
121083
121085
121083
121078
121067
121053
121034
121010
120979
120942
120895
120838
120767
120681
120575
120444
120284
120089
119850
119560
119210
118788
118286
117693
116998
116197
115286
114266
113142
111928
110647
109320
107986
106675
105426
104279
103267
102419
101758
101300
101048
100989
101074
101196
101288
121081
121082
121083
121086
121088
121087
121082
121072
121058
121039
121015
120985
120948
120902
120846
120776
120691
120586
120457
120299
120105
119868
119580
119231
118812
118311
117719
117024
116221
115308
114284
113151
111928
110635
109293
107945
106615
105348
104183
103154
102293
101623
101164
100921
100889
101014
101164
101268
121082
121083
121084
121087
121091
121091
121085
121076
121062
121043
121020
120990
120953
120908
120852
120783
120699
120595
120467
120310
120118
119883
119597
119250
118832
118333
117741
117047
116242
115327
114299
113160
111928
110626
109271
107910
106564
105280
104099
103055
102181
101503
101041
100806
100798
100963
101139
101251
121083
121083
121085
121089
121094
121094
121088
121079
121065
121047
121023
120994
120958
120913
120857
120789
120706
120603
120476
120320
120129
119896
119611
119265
118849
118351
117760
117066
116260
115343
114312
113167
111929
110619
109252
107880
106520
105221
104026
102968
102083
101396
100932
100703
100717
100922
101119
101236
121084
121084
121085
121090
121096
121096
121091
121081
121068
121049
121026
120997
120961
120917
120862
120794
120711
120609
120483
120328
120138
119906
119622
119278
118863
118366
117776
117082
116275
115357
114323
113174
111929
110613
109236
107855
106483
105171
103963
102893
101997
101304
100836
100611
100645
100889
101104
101224
121084
121084
121086
121091
121097
121098
121093
121083
121070
121052
121029
121000
120964
120920
120865
120798
120716
120614
120489
120335
120146
119915
119632
119289
118875
118378
117789
117095
116287
115369
114333
113180
111930
110609
109222
107835
106451
105128
103909
102829
101924
101223
100753
100530
100582
100863
101092
101212
121084
121085
121086
121091
121099
121100
121094
121085
121071
121053
121031
121002
120966
120922
120868
120801
120719
120618
120494
120340
120152
119921
119640
119298
118884
118389
117800
117106
116298
115378
114341
113185
111931
110605
109211
107818
106424
105092
103863
102773
101860
101154
100680
100460
100529
100846
101086
101207
121085
121085
121086
121092
121100
121101
121096
121086
121073
121055
121032
121003
120968
120924
120870
120804
120722
120621
120497
120345
120157
119927
119646
119305
118892
118397
117808
117115
116306
115386
114347
113189
111931
110602
109202
107804
106402
105061
103823
102725
101805
101094
100618
100400
100485
100837
101088
101210
121085
121085
121086
121092
121101
121102
121097
121087
121074
121056
121033
121005
120970
120926
120872
120806
120724
120624
120500
120348
120161
119932
119651
119311
118899
118404
117816
117123
116313
115393
114353
113192
111932
110600
109195
107793
106383
105036
103790
102685
101760
101044
100567
100352
100451
100835
101095
101219
121085
121085
121086
121093
121102
121103
121098
121088
121075
121057
121034
121006
120971
120927
120874
120808
120726
120626
120503
120351
120165
119936
119656
119315
118904
118410
117822
117130
116320
115399
114358
113196
111933
110599
109189
107784
106369
105015
103763
102651
101719
101000
100521
100307
100418
100830
101096
101221
121085
121085
121086
121093
121102
121103
121098
121089
121076
121058
121035
121007
120972
120928
120875
120809
120728
120628
120505
120354
120167
119939
119660
119320
118909
118415
117828
117135
116325
115404
114363
113199
111935
110600
109187
107780
106359
105001
103741
102621
101683
100959
100478
100264
100385
100818
101088
101212
121085
121085
121086
121093
121103
121104
121099
121089
121076
121058
121036
121008
120973
120929
120876
120810
120729
120630
120507
120356
120170
119942
119663
119323
118913
118420
117833
117141
116331
115410
114368
113203
111938
110602
109187
107780
106354
104991
103724
102596
101652
100923
100439
100225
100353
100804
101077
101201
121085
121085
121086
121093
121103
121104
121099
121090
121077
121059
121036
121008
120973
120930
120877
120811
120731
120631
120509
120358
120172
119944
119666
119326
118916
118424
117837
117146
116336
115415
114373
113207
111941
110605
109190
107782
106354
104985
103711
102575
101625
100893
100409
100195
100330
100797
101072
101197
121085
121085
121086
121093
121104
121105
121100
121090
121077
121059
121037
121009
120974
120931
120877
120812
120731
120632
120510
120359
120174
119946
119668
119329
118920
118427
117841
117150
116340
115420
114378
113212
111945
110609
109194
107785
106355
104983
103704
102565
101613
100881
100398
100187
100328
100807
101083
101207
121085
121085
121086
121093
121104
121105
121100
121090
121077
121060
121037
121009
120974
120931
120878
120813
120732
120633
120511
120360
120175
119948
119670
119332
118922
118430
117845
117154
116344
115424
114383
113217
111951
110613
109197
107788
106356
104982
103704
102566
101615
100883
100400
100189
100334
100823
101098
101221
121085
121085
121086
121093
121104
121105
121100
121090
121077
121060
121037
121009
120974
120931
120878
120813
120733
120634
120512
120361
120176
119949
119672
119334
118925
118433
117848
117158
116348
115429
114387
113222
111955
110618
109201
107793
106359
104985
103708
102570
101621
100890
100408
100196
100342
100837
101110
101230
121085
121085
121086
121093
121104
121105
121100
121090
121077
121060
121037
121009
120974
120932
120879
120813
120733
120634
120512
120362
120177
119951
119673
119336
118927
118436
117851
117161
116352
115433
114391
113226
111960
110623
109206
107798
106365
104991
103715
102578
101629
100899
100416
100201
100346
100842
101113
101231
121085
121085
121086
121093
121104
121105
121100
121090
121077
121060
121037
121009
120974
120931
120879
120813
120733
120634
120513
120363
120178
119951
119674
119337
118928
118438
117853
117163
116355
115436
114395
113230
111963
110628
109212
107803
106369
104996
103720
102584
101635
100903
100417
100200
100346
100846
101116
101232
121085
121085
121086
121093
121104
121105
121100
121090
121077
121059
121037
121009
120974
120931
120878
120813
120733
120634
120512
120362
120178
119951
119674
119337
118929
118438
117854
117165
116356
115438
114398
113233
111966
110630
109216
107810
106375
105002
103726
102590
101640
100907
100420
100202
100348
100850
101120
101234
121085
121085
121086
121093
121104
121105
121099
121090
121077
121059
121037
121009
120974
120931
120878
120813
120733
120634
120512
120362
120177
119951
119673
119336
118928
118437
117852
117163
116355
115437
114397
113231
111965
110629
109214
107811
106379
105006
103730
102594
101644
100911
100423
100203
100347
100848
101117
101231
121085
121085
121086
121093
121104
121105
121100
121090
121077
121059
121037
121009
120974
120931
120878
120813
120733
120634
120512
120362
120177
119950
119673
119335
118926
118435
117850
117160
116351
115432
114391
113225
111957
110620
109203
107799
106367
104995
103719
102583
101631
100896
100407
100184
100327
100830
101099
101214
121085
121085
121086
121093
121104
121105
121100
121090
121077
121059
121037
121009
120974
120931
120878
120813
120733
120634
120512
120362
120177
119950
119672
119335
118926
118434
117849
117158
116348
115428
114386
113218
111949
110610
109191
107783
106349
104975
103698
102559
101606
100869
100378
100155
100298
100802
101073
101189
121085
121085
121086
121093
121104
121105
121100
121090
121077
121059
121037
121009
120974
120931
120878
120813
120733
120634
120512
120362
120177
119950
119673
119335
118926
118434
117849
117158
116348
115427
114384
113216
111946
110605
109185
107775
106339
104963
103683
102542
101588
100850
100358
100136
100280
100784
101055
101171
101321
101321
101321
101321
101321
101320
101320
101320
101320
101320
101320
101319
101319
101317
101313
101316
101318
101318
101319
101318
101318
101317
101316
101314
101312
101310
101307
101304
101299
101292
101321
101321
101321
101321
101321
101320
101320
101320
101320
101320
101320
101319
101319
101317
101313
101316
101318
101318
101319
101318
101318
101317
101316
101314
101312
101310
101307
101304
101299
101293
101321
101321
101321
101321
101321
101320
101320
101320
101320
101320
101320
101319
101319
101317
101313
101316
101318
101318
101319
101318
101318
101317
101316
101314
101312
101310
101307
101304
101300
101293
101321
101321
101321
101321
101321
101320
101320
101320
101320
101320
101320
101319
101319
101317
101313
101316
101318
101318
101319
101318
101318
101317
101316
101314
101312
101310
101307
101304
101300
101294
101321
101321
101321
101321
101321
101320
101320
101320
101320
101320
101320
101319
101319
101317
101313
101316
101318
101318
101319
101318
101318
101317
101316
101314
101312
101310
101307
101304
101300
101295
101321
101321
101321
101321
101321
101320
101320
101320
101320
101320
101320
101319
101319
101317
101313
101316
101318
101318
101319
101318
101318
101317
101316
101314
101313
101310
101308
101304
101300
101296
101321
101321
101321
101321
101321
101320
101320
101320
101320
101320
101320
101319
101319
101317
101313
101316
101318
101318
101319
101318
101318
101317
101316
101314
101313
101310
101308
101305
101301
101296
101321
101321
101321
101321
101321
101320
101320
101320
101320
101320
101320
101319
101319
101317
101313
101316
101318
101318
101319
101318
101318
101317
101316
101315
101313
101310
101308
101305
101301
101297
101321
101321
101321
101321
101321
101320
101320
101320
101320
101320
101320
101319
101319
101317
101313
101316
101318
101318
101319
101318
101318
101317
101316
101315
101313
101310
101308
101305
101302
101298
101321
101321
101321
101321
101321
101320
101320
101320
101320
101320
101320
101319
101319
101317
101313
101316
101318
101318
101319
101318
101318
101317
101316
101315
101313
101311
101308
101305
101302
101299
101321
101321
101321
101321
101321
101320
101320
101320
101320
101320
101320
101319
101319
101317
101313
101316
101318
101318
101319
101318
101318
101317
101316
101315
101313
101311
101308
101306
101303
101300
101321
101321
101321
101321
101321
101320
101320
101320
101320
101320
101320
101319
101319
101317
101313
101316
101318
101318
101319
101318
101318
101317
101316
101315
101313
101311
101309
101306
101303
101301
101321
101321
101321
101321
101321
101320
101320
101320
101320
101320
101320
101319
101319
101317
101314
101316
101318
101318
101319
101318
101318
101317
101316
101315
101313
101311
101309
101306
101304
101302
101321
101321
101321
101321
101321
101320
101320
101320
101320
101320
101320
101319
101319
101317
101314
101316
101318
101318
101319
101318
101318
101317
101316
101315
101313
101311
101309
101307
101305
101303
101321
101321
101321
101321
101321
101320
101320
101320
101320
101320
101320
101319
101319
101317
101314
101316
101318
101318
101319
101318
101318
101317
101316
101315
101313
101312
101309
101307
101305
101304
101321
101321
101321
101321
101321
101320
101320
101320
101320
101320
101320
101319
101319
101317
101314
101316
101318
101318
101319
101318
101318
101317
101316
101315
101314
101312
101310
101308
101306
101305
101321
101321
101321
101321
101321
101320
101320
101320
101320
101320
101320
101319
101319
101317
101315
101316
101318
101318
101319
101318
101318
101317
101316
101315
101314
101312
101310
101309
101307
101306
101321
101321
101321
101321
101321
101320
101320
101320
101320
101320
101320
101319
101319
101317
101315
101316
101318
101318
101319
101318
101318
101317
101317
101315
101314
101312
101311
101309
101308
101307
101321
101321
101321
101321
101321
101320
101320
101320
101320
101320
101320
101319
101319
101318
101315
101316
101318
101318
101319
101318
101318
101317
101317
101316
101314
101313
101311
101310
101309
101308
101321
101321
101321
101321
101321
101320
101320
101320
101320
101320
101320
101319
101319
101318
101316
101316
101318
101318
101319
101319
101318
101318
101317
101316
101315
101313
101312
101311
101310
101309
101321
101321
101321
101321
101321
101320
101320
101320
101320
101320
101320
101319
101319
101318
101316
101316
101318
101318
101319
101319
101318
101318
101317
101316
101315
101314
101313
101312
101311
101310
101321
101321
101321
101321
101321
101320
101320
101320
101320
101320
101320
101319
101319
101318
101317
101317
101318
101318
101319
101319
101318
101318
101317
101316
101315
101314
101313
101312
101312
101311
101321
101321
101321
101321
101321
101321
101320
101320
101320
101320
101320
101319
101319
101318
101317
101317
101318
101318
101319
101319
101318
101318
101317
101316
101316
101315
101314
101313
101313
101312
101321
101321
101321
101321
101321
101321
101320
101320
101320
101320
101320
101319
101319
101318
101317
101317
101318
101318
101319
101319
101318
101318
101317
101317
101316
101315
101315
101314
101313
101313
101321
101321
101321
101321
101321
101321
101320
101320
101320
101320
101320
101319
101319
101319
101318
101318
101318
101319
101319
101319
101318
101318
101318
101317
101316
101316
101315
101315
101314
101314
101321
101321
101321
101321
101321
101321
101320
101320
101320
101320
101320
101320
101319
101319
101318
101318
101318
101319
101319
101319
101319
101318
101318
101317
101317
101316
101316
101315
101315
101315
101321
101321
101321
101321
101321
101321
101320
101320
101320
101320
101320
101320
101319
101319
101319
101318
101318
101319
101319
101319
101319
101318
101318
101318
101317
101317
101316
101316
101316
101316
101321
101321
101321
101321
101321
101321
101321
101320
101320
101320
101320
101320
101320
101319
101319
101319
101319
101319
101319
101319
101319
101319
101318
101318
101318
101317
101317
101317
101316
101316
101321
101321
101321
101321
101321
101321
101321
101320
101320
101320
101320
101320
101320
101319
101319
101319
101319
101319
101319
101319
101319
101319
101319
101318
101318
101318
101317
101317
101317
101317
101321
101321
101321
101321
101321
101321
101321
101321
101320
101320
101320
101320
101320
101320
101320
101319
101319
101319
101319
101319
101319
101319
101319
101319
101318
101318
101318
101318
101318
101318
101321
101321
101321
101321
101321
101321
101321
101321
101321
101320
101320
101320
101320
101320
101320
101320
101319
101319
101319
101319
101319
101319
101319
101319
101319
101319
101318
101318
101318
101318
101321
101321
101321
101321
101321
101321
101321
101321
101321
101321
101321
101320
101320
101320
101320
101320
101320
101320
101320
101320
101320
101319
101319
101319
101319
101319
101319
101319
101319
101319
101321
101321
101321
101321
101321
101321
101321
101321
101321
101321
101321
101321
101321
101320
101320
101320
101320
101320
101320
101320
101320
101320
101320
101320
101319
101319
101319
101319
101319
101319
101321
101321
101321
101321
101321
101321
101321
101321
101321
101321
101321
101321
101321
101321
101321
101321
101320
101320
101320
101320
101320
101320
101320
101320
101320
101320
101320
101320
101320
101320
101321
101321
101321
101321
101321
101321
101321
101321
101321
101321
101321
101321
101321
101321
101321
101321
101321
101321
101321
101320
101320
101320
101320
101320
101320
101320
101320
101320
101320
101320
101321
101321
101321
101321
101321
101321
101321
101321
101321
101321
101321
101321
101321
101321
101321
101321
101321
101321
101321
101321
101321
101321
101321
101321
101321
101321
101320
101320
101320
101320
101322
101322
101322
101322
101322
101322
101322
101322
101322
101322
101321
101321
101321
101321
101321
101321
101321
101321
101321
101321
101321
101321
101321
101321
101321
101321
101321
101321
101321
101321
101322
101322
101322
101322
101322
101322
101322
101322
101322
101322
101322
101322
101322
101322
101322
101322
101322
101322
101322
101321
101321
101321
101321
101321
101321
101321
101321
101321
101321
101321
101322
101322
101322
101322
101322
101322
101322
101322
101322
101322
101322
101322
101322
101322
101322
101322
101322
101322
101322
101322
101322
101322
101322
101322
101322
101322
101322
101322
101322
101322
101322
101322
101322
101322
101322
101322
101322
101322
101322
101322
101322
101322
101322
101322
101322
101322
101322
101322
101322
101322
101322
101322
101322
101322
101322
101322
101322
101322
101322
101322
101322
101322
101322
101322
101322
101322
101322
101322
101322
101322
101322
101322
101323
101323
101323
101322
101322
101322
101322
101322
101322
101322
101322
101322
101322
101322
101322
101322
101322
101322
101323
101323
101323
101323
101323
101323
101323
101323
101323
101323
101323
101323
101323
101323
101323
101323
101323
101323
101323
101323
101323
101323
101323
101323
101323
101323
101323
101323
101323
101323
101323
101323
101323
101323
101323
101323
101323
101323
101323
101323
101323
101323
101323
101323
101323
101323
101323
101323
101323
101323
101323
101323
101323
101323
101323
101323
101323
101323
101323
101323
101323
101323
101323
101323
101323
101323
101323
101323
101323
101323
101323
101323
101323
101323
101323
101323
101323
101323
101323
101323
101323
101323
101323
101323
101323
101323
101323
101323
101323
101323
101324
101324
101324
101324
101324
101324
101324
101324
101324
101324
101324
101324
101324
101324
101324
101324
101324
101324
101324
101324
101324
101324
101324
101324
101324
101324
101324
101324
101324
101324
101324
101324
101324
101324
101324
101324
101324
101324
101324
101324
101324
101324
101324
101324
101324
101324
101324
101324
101324
101324
101324
101324
101324
101324
101324
101324
101324
101324
101324
101324
101324
101324
101324
101324
101324
101324
101324
101324
101324
101324
101324
101324
101324
101324
101324
101324
101324
101324
101324
101324
101324
101324
101324
101324
101324
101324
101324
101324
101324
101324
101324
101324
101324
101324
101324
101324
101324
101324
101324
101324
101324
101324
101324
101324
101324
101324
101324
101324
101324
101324
101324
101324
101324
101324
101324
101324
101324
101324
101324
101324
101913
101812
101729
101661
101605
101559
101521
101489
101461
101436
101415
101396
101382
101373
101367
101364
101362
101358
101352
101345
101336
101327
101319
101311
101303
101294
101283
101272
101260
101249
101238
101227
101216
101206
101195
101185
101176
101167
101159
101151
101143
101134
101126
101117
101108
101099
101089
101079
101068
101056
101043
101029
101016
101001
100987
100972
100956
100940
100922
100903
100883
100863
100841
100817
100792
100771
100756
100744
100733
100725
100720
100717
100717
100719
100724
100729
100737
100745
100755
100764
100774
100783
100794
100802
100813
100821
100835
100843
100857
100872
100875
100887
100896
100907
100916
100926
100936
100946
100957
100969
100982
100995
101010
101026
101042
101060
101078
101097
101117
101137
101157
101176
101194
101212
101232
101249
101264
101277
101287
101295
101301
101306
101310
101313
101316
101317
101321
101315
101912
101811
101729
101660
101605
101559
101521
101489
101461
101436
101415
101396
101382
101373
101367
101364
101362
101358
101352
101345
101336
101327
101319
101311
101303
101294
101283
101272
101260
101249
101238
101227
101216
101206
101195
101185
101176
101167
101159
101151
101143
101134
101126
101117
101108
101099
101089
101079
101068
101056
101043
101029
101016
101001
100987
100972
100956
100940
100922
100903
100883
100863
100842
100819
100796
100775
100758
100744
100733
100723
100717
100714
100713
100714
100718
100722
100729
100736
100745
100753
100763
100771
100781
100789
100800
100808
100821
100829
100843
100857
100860
100871
100881
100891
100901
100911
100921
100931
100942
100954
100966
100980
100996
101012
101029
101047
101066
101087
101107
101128
101149
101169
101188
101207
101227
101245
101261
101274
101285
101293
101300
101305
101309
101312
101315
101316
101321
101315
101912
101811
101728
101660
101604
101558
101521
101489
101461
101436
101414
101396
101382
101373
101367
101364
101362
101358
101352
101345
101336
101327
101319
101311
101303
101294
101283
101272
101260
101249
101238
101227
101216
101206
101195
101185
101176
101167
101159
101151
101143
101134
101126
101117
101108
101099
101089
101079
101068
101056
101043
101029
101016
101001
100987
100972
100956
100940
100922
100903
100883
100863
100843
100822
100801
100782
100763
100749
100737
100727
100721
100718
100717
100718
100722
100726
100733
100740
100749
100757
100767
100775
100785
100793
100804
100812
100825
100833
100846
100861
100863
100875
100884
100895
100904
100914
100924
100934
100945
100956
100969
100983
100998
101014
101031
101049
101068
101088
101109
101129
101150
101170
101189
101208
101228
101246
101261
101275
101285
101293
101300
101305
101309
101312
101315
101316
101321
101315
101911
101810
101727
101660
101604
101558
101520
101488
101461
101436
101414
101396
101382
101373
101367
101364
101361
101358
101352
101345
101336
101327
101319
101311
101303
101294
101283
101272
101260