/*--------------------------------*- C++ -*----------------------------------*\
| =========                 |                                                 |
| \\      /  F ield         | OpenFOAM: The Open Source CFD Toolbox           |
|  \\    /   O peration     | Version:  2212                                  |
|   \\  /    A nd           | Website:  www.openfoam.com                      |
|    \\/     M anipulation  |                                                 |
\*---------------------------------------------------------------------------*/
FoamFile
{
    version     2.0;
    format      ascii;
    arch        "LSB;label=32;scalar=64";
    class       volScalarField;
    location    "10000";
    object      p_e;
}
// * * * * * * * * * * * * * * * * * * * * * * * * * * * * * * * * * * * * * //

dimensions      [0 0 0 0 0 0 0];

internalField   nonuniform List<scalar> 
18080
(
0.0265031
0.236427
0.789516
1.36676
1.87377
2.42808
3.03468
3.69464
4.40749
5.17596
6.02645
6.96555
7.99922
9.13289
10.371
11.7172
13.1745
14.7456
16.4336
18.243
20.1804
22.254
24.4719
26.8379
29.346
31.9729
34.6701
37.3635
39.9532
42.31
44.3038
45.811
46.7191
46.946
46.4455
45.1979
43.2295
40.5984
37.4061
33.7923
29.9267
25.9944
22.1748
18.6198
15.4371
12.692
10.3827
8.4846
0.0340534
0.236876
0.732273
1.30383
1.77548
2.28614
2.83906
3.4355
4.0769
4.76533
5.52158
6.36718
7.31578
8.38239
9.58302
10.9345
12.4537
14.1571
16.0593
18.1716
20.5007
23.0458
25.7962
28.7286
31.8044
34.9672
38.1405
41.2306
44.1267
46.6987
48.8179
50.3594
51.2057
51.2689
50.4983
48.8794
46.4554
43.3139
39.5938
35.4731
31.154
26.843
22.7292
18.9636
15.6467
12.8318
10.5008
8.63089
0.031523
0.22367
0.698504
1.28171
1.75113
2.26059
2.81391
3.41267
4.05833
4.75264
5.51525
6.36734
7.32142
8.39097
9.58998
10.9327
12.433
14.1034
15.9541
17.9919
20.2186
22.6291
25.2098
27.9364
30.7725
33.6675
36.5552
39.3567
41.9801
44.3157
46.2543
47.6877
48.5097
48.6341
48.0052
46.5933
44.423
41.5592
38.1193
34.2635
30.1809
26.0708
22.1203
18.4823
15.2609
12.514
10.2295
8.39519
0.0342793
0.226399
0.699503
1.28018
1.74802
2.25442
2.80703
3.40569
4.04974
4.74213
5.50189
6.35058
7.30084
8.36636
9.56155
10.9012
12.4
14.0714
15.927
17.9751
20.2191
22.6559
25.2734
28.049
30.947
33.9169
36.8916
39.7895
42.5144
44.9516
46.9854
48.5006
49.3842
49.5452
48.9236
47.4899
45.2696
42.3324
38.8015
34.8441
30.656
26.4429
22.3961
18.6718
15.3757
12.566
10.2273
8.35566
0.0362834
0.225411
0.693542
1.2752
1.74182
2.24677
2.79772
3.39513
4.03986
4.73179
5.49087
6.33898
7.28872
8.35373
9.5483
10.8871
12.3844
14.0536
15.9057
17.9484
20.1846
22.6103
25.2128
27.9686
30.8415
33.7809
36.7197
39.5772
42.2586
44.6516
46.6427
48.1195
48.9717
49.1103
48.4767
47.0414
44.8296
41.9093
38.4017
34.4717
30.313
26.1292
22.1104
18.4115
15.1373
12.3448
10.0175
8.15456
0.0411328
0.228756
0.695788
1.27458
1.73949
2.24313
2.79294
3.38859
4.03336
4.72448
5.48244
6.32931
7.27766
8.34109
9.53386
10.8706
12.3658
14.0325
15.8822
17.9225
20.1565
22.5806
25.1823
27.9388
30.8142
33.7585
36.705
39.5736
42.2695
44.6801
46.6918
48.1909
49.0658
49.2261
48.6112
47.1902
44.9869
42.0682
38.5553
34.6131
30.4363
26.2298
22.1853
18.4592
15.1582
12.3405
9.9881
8.10609
0.0489069
0.234299
0.70055
1.2748
1.73768
2.23978
2.78821
3.38248
4.02427
4.71644
5.47307
6.31854
7.26539
8.32722
9.51824
10.8531
12.3461
14.0105
15.8574
17.8947
20.1254
22.5456
25.1431
27.895
30.7655
33.7047
36.6462
39.5099
42.2013
44.608
46.6168
48.114
48.988
49.1482
48.5339
47.1135
44.9104
41.9908
38.4753
34.5286
30.3454
26.1306
22.0766
18.3407
15.0303
12.2041
9.84254
7.95457
0.0612999
0.244006
0.711468
1.27768
1.73792
2.238
2.78462
3.37727
4.01718
4.70681
5.4633
6.30692
7.25178
8.31146
9.50014
10.8324
12.3226
13.9839
15.8275
17.8612
20.0881
22.5044
25.0983
27.8469
30.7149
33.6527
36.5943
39.4601
42.1557
44.569
46.5869
48.0953
48.9821
49.1559
48.555
47.1466
44.9528
42.0385
38.5234
34.5715
30.3772
26.1465
22.0726
18.3147
14.9824
12.1366
9.75649
7.85665
0.0809688
0.259632
0.73046
1.28365
1.74026
2.23759
2.78182
3.3723
4.01019
4.69729
5.45211
6.29324
7.23546
8.29229
9.47792
10.8069
12.2936
13.9512
15.7908
17.8203
20.0429
22.4551
25.045
27.7902
30.6557
33.5922
36.5342
39.4023
42.1022
44.5222
46.5491
48.0684
48.9673
49.1542
48.5659
47.1685
44.9827
42.0719
38.5545
34.5936
30.3837
26.1312
22.0313
18.2456
14.8869
12.0184
9.61895
7.70833
0.112132
0.284154
0.761362
1.29404
1.74562
2.23924
2.78027
3.36787
4.00302
4.68724
5.43759
6.27708
7.21575
8.2688
9.45042
10.7752
12.2574
13.9102
15.745
17.7696
19.9873
22.3949
24.9809
27.7231
30.5871
33.524
36.4686
39.3421
42.0503
44.4816
46.523
48.0595
48.9774
49.1843
48.6155
47.2353
45.0627
42.1586
38.6399
34.6682
30.4378
26.1562
22.0209
18.1972
14.8025
11.9039
9.48028
7.5573
0.161009
0.321593
0.80902
1.31026
1.75489
2.2435
2.78025
3.36399
3.99545
4.67603
5.42168
6.25729
7.19122
8.23926
9.41562
10.7349
12.2114
13.8584
15.6873
17.7062
19.9185
22.3214
24.9036
27.6436
30.5073
33.4465
36.3965
39.2789
41.9995
44.4469
46.5083
48.0677
49.0106
49.2435
48.6998
47.3416
45.1852
42.2889
38.7671
34.7798
30.5209
26.1994
22.0163
18.1416
14.6991
11.7611
9.30784
7.37045
0.237009
0.377513
0.879749
1.3339
1.7692
2.25114
2.78219
3.3608
3.98734
4.66301
5.40283
6.23117
7.16053
8.202
9.37152
10.6838
12.1531
13.793
15.6149
17.6271
19.8336
22.2316
24.8106
27.5496
30.4151
33.3594
36.3185
39.2143
41.953
44.423
46.5117
48.1021
49.0785
49.3459
48.8352
47.5061
45.3711
42.4852
38.9595
34.952
30.6559
26.2823
22.0363
18.0949
14.5901
11.6013
9.11118
7.15627
0.353647
0.459084
0.980918
1.36641
1.78966
2.26299
2.78666
3.35858
3.97865
4.64783
5.38026
6.20037
7.1222
8.15521
9.31602
10.6194
12.0799
13.7112
15.5249
17.5297
19.7298
22.1233
24.7
27.4396
30.3095
33.2627
36.2357
39.151
41.9148
44.4158
46.5409
48.1721
49.1918
49.5034
49.0349
47.7423
45.6343
42.761
39.2301
35.1964
30.8527
26.4121
22.0855
18.0581
14.4731
11.4189
8.88265
6.90543
0.527635
0.574027
1.05235
1.40874
1.81734
2.28008
2.79455
3.358
3.96978
4.63057
5.35351
6.16349
7.07358
8.0977
9.24766
10.5402
11.99
13.611
15.4152
17.4118
19.6055
21.9948
24.5705
27.3132
30.191
33.1577
36.1504
39.0921
41.889
44.43
46.6022
48.2857
49.3609
49.7291
49.3144
48.0683
45.9944
43.1376
39.6007
35.5352
31.1328
26.6092
22.1817
18.0459
14.359
11.2217
8.62769
6.62163
0.774799
0.728249
1.12412
1.46002
1.85233
2.30256
2.80615
3.35928
3.96073
4.61097
5.32202
6.11958
7.01643
8.02803
9.16477
10.4442
11.8814
13.4905
15.2841
17.2717
19.4589
21.8448
24.4212
27.1698
30.0596
33.0456
36.0656
39.043
41.8833
44.4754
46.7059
48.4531
49.5954
50.0322
49.683
48.4944
46.4633
43.6284
40.0866
35.985
31.5139
26.8909
22.3408
18.0719
14.2585
11.0171
8.3514
6.30838
1.04416
0.921724
1.20265
1.51822
1.89394
2.33099
2.8226
3.36384
3.95298
4.59045
5.28717
6.06983
6.95122
7.94588
9.06898
10.3333
11.756
13.3519
15.1338
17.1122
19.2932
21.6772
24.2568
27.0144
29.9202
32.93
35.9831
39.0037
41.8985
44.5567
46.8631
48.6918
49.9176
50.4375
50.1664
49.046
47.0664
44.2589
40.7139
36.5729
32.0233
27.2847
22.5893
18.1599
14.1916
10.8217
8.06823
5.97923
1.19318
1.06253
1.28258
1.58044
1.9414
2.36616
2.8456
3.37377
3.94876
4.57127
5.2513
6.01666
6.88038
7.85699
8.96297
10.2103
11.617
13.1984
14.968
16.9371
19.1123
21.4945
24.0778
26.8479
29.7759
32.8184
35.9146
38.9882
41.9415
44.6675
47.0554
48.9774
50.3038
50.9261
50.7513
49.7142
47.7982
45.0269
41.4839
37.3046
32.6722
27.8063
22.9464
18.3307
14.179
10.6553
7.79776
5.65468
1.32067
1.14991
1.356
1.64132
1.99177
2.40678
2.87468
3.38883
3.94781
4.55311
5.21403
5.95966
6.80334
7.75977
8.84517
10.0749
11.4639
13.0295
14.7857
16.7436
18.9132
21.2972
23.8893
26.6743
29.6268
32.7054
35.8505
38.9872
42.0205
44.8385
47.3232
49.3401
50.7654
51.4956
51.43
50.4928
48.6558
45.9332
42.4018
38.1907
33.4776
28.48
23.4428
18.6195
14.2577
10.5551
7.57902
5.37713
1.41503
1.21664
1.41583
1.69648
2.04329
2.45269
2.91025
3.40951
3.95065
4.53662
5.17623
5.89999
6.72158
7.65603
8.71963
9.92923
11.2991
12.8468
14.5887
16.5375
18.7002
21.0822
23.681
26.4821
29.4605
32.5764
35.7714
38.9708
42.0842
45.001
47.6021
49.7499
51.3034
52.1537
52.1989
51.3712
49.6303
46.9754
43.4733
39.2463
34.4654
29.3434
24.1274
19.0836
14.4882
10.5826
7.4747
5.21191
1.46745
1.2563
1.45742
1.744
2.09644
2.50536
2.95364
3.43679
3.95819
4.52295
5.1395
5.83979
6.63783
7.54902
8.58989
9.77739
11.1268
12.6573
14.383
16.3193
18.4761
20.8572
23.4622
26.2814
29.2912
32.4522
35.7064
38.9771
42.169
45.1774
47.8904
50.1675
51.8649
52.8684
53.0586
52.3548
50.7152
48.1407
44.6866
40.4644
35.6353
30.4044
25.0166
19.7455
14.8938
10.7577
7.50272
5.17824
1.47417
1.26591
1.47921
1.78494
2.15403
2.5673
3.00608
3.47105
3.97074
4.51273
5.10503
5.78091
6.55469
7.44186
8.45925
9.62456
10.9528
12.4635
14.1739
16.0975
18.2479
20.6317
23.2482
26.0876
29.1283
32.3334
35.6465
38.9908
42.2705
45.3857
48.2187
50.6145
52.4406
53.5915
53.9401
53.3952
51.8889
49.3964
45.9967
41.797
36.944
31.6295
26.09
20.5952
15.4659
11.0659
7.64417
5.25506
1.43705
1.24639
1.4832
1.82368
2.22101
2.6414
3.06809
3.51187
3.98797
4.50607
5.0736
5.72477
6.47409
7.3381
8.33316
9.4738
10.7813
12.2732
13.9683
15.8825
18.0274
20.4103
23.0327
25.8875
28.9555
32.2019
35.5721
38.9873
42.348
45.5648
48.522
51.0552
53.0181
54.3155
54.8099
54.4235
53.067
50.7028
47.3758
43.2058
38.351
32.985
27.3257
21.6214
16.1922
11.4844
7.87019
5.41199
1.36247
1.20133
1.47375
1.86671
2.30274
2.72928
3.13862
3.55772
4.00877
4.50252
5.04549
5.67299
6.39932
7.23963
8.21113
9.33061
10.6182
12.0936
13.7744
15.6763
17.8127
20.1931
22.8208
25.6903
28.7836
32.071
35.4991
38.9832
42.4201
45.7361
48.8141
51.4692
53.5687
55.0308
55.6782
55.4514
54.2433
51.9934
48.7534
44.6396
39.7971
34.4093
28.6704
22.7808
17.0267
11.9537
8.12098
5.59333
1.26211
1.13688
1.45738
1.92159
2.40335
2.83
3.21472
3.60606
4.03135
4.50077
5.02189
5.62582
6.32955
7.14885
8.09894
9.19962
10.4696
11.9277
13.5928
15.4823
17.6106
19.9882
22.619
25.5026
28.6222
31.9434
35.42
38.9684
42.4722
45.8805
49.075
51.8481
54.0765
55.7033
56.5037
56.46
55.4034
53.2456
50.0795
46.025
41.2274
35.8445
30.0715
24.0314
17.9265
12.4189
8.35147
5.77793
1.14771
1.05903
1.4406
1.99445
2.52357
2.93981
3.2925
3.65451
4.05391
4.50056
4.99934
5.58222
6.26544
7.06501
7.9974
9.08023
10.3323
11.7734
13.4235
15.3017
17.4227
19.7979
22.4334
25.3275
28.4634
31.8148
35.3374
38.9453
42.5062
46.0006
49.3077
52.193
54.5474
56.3502
57.3038
57.452
56.5536
54.5037
51.393
47.3711
42.6155
37.2679
31.5043
25.354
18.8685
12.8418
8.54092
5.95891
1.03081
0.944976
1.43057
2.08919
2.66071
3.05302
3.36801
3.70059
4.07695
4.5004
4.97873
5.54316
6.20956
6.99155
7.90626
8.97147
10.2072
11.6339
13.2716
15.1389
17.2511
19.6212
22.2568
25.1542
28.3044
31.68
35.2423
38.9047
42.5133
46.0879
49.5039
52.4939
54.9666
56.9474
58.0394
58.3776
57.6197
55.648
52.5868
48.5968
43.8649
38.6034
32.908
26.7074
19.8219
13.1868
8.68184
6.15763
0.836715
0.774415
1.43172
2.20453
2.8084
3.16307
3.43778
3.74295
4.095
4.49734
4.95942
5.50714
6.15696
6.92231
7.821
8.87046
10.0907
11.5019
13.1246
14.9784
17.0789
19.4386
22.0658
24.962
28.1187
31.5098
35.1038
38.8136
42.4573
46.0998
49.6107
52.688
55.263
57.4192
58.6347
59.1636
58.5338
56.6273
53.603
49.6476
44.9771
39.794
34.2107
28.001
20.6793
13.3198
8.64157
6.23437
0.663205
0.632645
1.44653
2.33462
2.95522
3.25952
3.49379
3.77411
4.10041
4.4836
4.92746
5.45565
6.08604
6.83097
7.70865
8.73497
9.93054
11.3156
12.9111
14.7387
16.8111
19.1457
21.7533
24.6357
27.7863
31.1791
34.7892
38.5315
42.1919
45.8861
49.477
52.628
55.2941
57.6259
58.9548
59.6778
59.1672
57.3212
54.3361
50.4194
45.8293
40.7424
35.3158
29.1409
21.3847
13.1903
8.32726
5.96902
0.535869
0.51777
1.47267
2.46947
3.08796
3.33006
3.52318
3.77188
4.0713
4.42808
4.84511
5.34069
5.93707
6.64513
7.48371
8.46846
9.62127
10.963
12.5155
14.2999
16.3298
18.6233
21.1926
24.0426
27.1666
30.5374
34.1368
37.8835
41.5304
45.2437
48.8808
52.0728
54.797
57.2758
58.688
59.5919
59.1942
57.4316
54.5539
50.8044
46.4946
41.8333
36.9525
31.1437
22.9099
13.7929
8.92093
6.79627
0.440591
0.427616
1.50859
2.60508
3.21002
3.3873
3.54644
3.76576
4.0405
4.37434
4.76924
5.23785
5.80719
6.48695
7.29851
8.27129
9.40895
10.7288
12.2499
13.9904
15.9618
18.1772
20.641
23.3543
26.3104
29.4808
32.8538
36.3559
39.7154
43.1482
46.5219
49.4702
52.0064
54.4212
55.7711
56.7966
56.6239
55.2538
52.9932
50.0914
46.8082
43.1947
38.982
31.5477
19.9201
9.43008
3.63788
2.01927
0.376121
0.364557
1.55404
2.73501
3.31857
3.43526
3.57038
3.77081
4.02949
4.35242
4.76126
5.24721
5.82797
6.49995
7.26369
8.10432
9.00682
9.94795
10.9079
11.8757
12.8458
13.8276
14.8345
15.8791
16.9758
18.1242
19.3431
20.6114
21.7409
22.9292
24.1057
25.0619
25.8615
26.7555
27.1112
27.4695
27.2436
26.5072
25.4879
24.0789
22.2304
19.8262
16.5818
11.4738
5.81519
2.03624
1.12553
1.64852
0.32913
0.314805
1.59556
2.83055
3.37871
3.44144
3.56101
3.7581
4.02147
4.34024
4.67196
4.94622
5.09517
5.08183
4.94173
4.74788
4.56598
4.43202
4.36052
4.35419
4.40767
4.51556
4.67031
4.86414
5.0958
5.36184
5.66012
5.97318
6.23422
6.51746
6.78737
6.9623
7.05629
7.12295
6.97818
6.83662
6.48613
6.08333
5.78561
5.69345
5.70252
5.63548
5.30931
4.34597
2.8586
1.72957
1.17515
0.588522
0.291937
0.280812
1.61493
2.81305
3.28533
3.27682
3.35484
3.47994
3.53222
3.38827
3.06024
2.68201
2.35429
2.10553
1.9314
1.81625
1.74865
1.71851
1.71944
1.74592
1.79167
1.8526
1.9244
2.00327
2.08612
2.16908
2.25247
2.32632
2.37284
2.42973
2.4849
2.50818
2.50302
2.45632
2.29958
2.10839
1.7464
1.33293
0.905352
0.952568
1.60777
2.08874
2.21519
1.98842
1.53352
1.15451
0.926984
0.650285
0.272061
0.284394
1.54928
2.48676
2.80986
2.74211
2.69333
2.50271
2.19974
1.9125
1.69094
1.52931
1.4101
1.31962
1.24962
1.19479
1.15335
1.12391
1.10666
1.10029
1.1024
1.11088
1.12308
1.13687
1.15043
1.16235
1.17349
1.17539
1.16246
1.15127
1.14075
1.13225
1.1493
1.2013
1.25673
1.30803
1.21828
0.928835
0.503296
0.232608
0.235022
0.332092
0.405773
0.463208
0.556171
0.597456
0.572188
0.538794
0.282584
0.422051
1.39636
1.98442
2.19029
2.13286
2.00691
1.82107
1.65197
1.51937
1.41484
1.32843
1.25408
1.18918
1.13297
1.0848
1.04466
1.01185
0.981812
0.95558
0.935398
0.919445
0.905641
0.8925
0.878491
0.862929
0.846558
0.823169
0.791976
0.747716
0.667887
0.567237
0.48104
0.464519
0.544223
0.650429
0.708806
0.783521
0.857818
0.962405
1.08445
1.20455
1.31499
1.41678
1.51755
1.55355
1.49031
1.40925
0.499171
1.00435
1.41369
1.73018
1.87514
1.86026
1.74416
1.62065
1.514
1.42382
1.34311
1.27104
1.20954
1.15863
1.11709
1.0836
1.05713
1.03601
1.01856
1.00325
0.987332
0.972209
0.957846
0.943813
0.929401
0.914174
0.898204
0.879968
0.864344
0.842614
0.77764
0.66584
0.522437
0.37201
0.349805
0.463215
0.659514
1.01983
1.30272
1.5138
1.65569
1.72987
1.75568
1.74019
1.72048
1.69848
1.62989
1.57331
1.12017
1.316
1.49833
1.68715
1.78889
1.74424
1.64133
1.5318
1.41811
1.31111
1.23207
1.17998
1.14545
1.1239
1.11253
1.10607
1.09995
1.09353
1.08668
1.07888
1.0698
1.05984
1.04948
1.03911
1.02871
1.01804
1.00692
0.994056
0.986991
0.988041
0.972344
0.904154
0.782994
0.619478
0.551966
0.665365
0.865801
1.06571
1.19402
1.26993
1.29858
1.29582
1.25556
1.1869
1.13623
1.11402
1.08876
1.0929
1.35599
1.45005
1.56448
1.70335
1.75758
1.66717
1.49621
1.36361
1.28527
1.22331
1.17764
1.14817
1.13011
1.12037
1.11651
1.11804
1.12532
1.13426
1.14006
1.14082
1.13679
1.12991
1.12164
1.11296
1.10436
1.09584
1.08718
1.07748
1.07209
1.07839
1.10047
1.09813
1.04849
0.938973
0.827492
0.825792
0.884748
0.824346
0.717425
0.636065
0.571083
0.513226
0.45466
0.419824
0.441121
0.497469
0.555498
0.622753
1.41838
1.50231
1.58767
1.68441
1.66568
1.48466
1.36857
1.28382
1.23362
1.20109
1.17949
1.16609
1.15777
1.15227
1.14759
1.14483
1.14582
1.14811
1.1501
1.15144
1.15124
1.14955
1.14698
1.14361
1.13976
1.1355
1.13066
1.12464
1.11903
1.11923
1.1403
1.18314
1.20362
1.15557
1.01345
0.865739
0.769682
0.604167
0.431394
0.304537
0.228925
0.194834
0.196266
0.240417
0.335113
0.450839
0.548651
0.622004
1.42294
1.49565
1.51964
1.54127
1.51205
1.39159
1.30453
1.24963
1.22223
1.20945
1.2026
1.1993
1.19734
1.19538
1.19156
1.18676
1.18191
1.17663
1.17138
1.16644
1.16131
1.15633
1.15024
1.14374
1.13711
1.1308
1.12507
1.11943
1.11349
1.10692
1.1052
1.13951
1.19069
1.21564
1.11253
0.949385
0.799509
0.621724
0.450941
0.325432
0.261087
0.252069
0.293639
0.374883
0.49829
0.624379
0.719869
0.791861
1.38943
1.40344
1.44908
1.47003
1.40896
1.30252
1.23899
1.21098
1.20377
1.20612
1.21185
1.21833
1.22407
1.22836
1.22778
1.22444
1.21994
1.21436
1.20791
1.20046
1.19163
1.18278
1.17348
1.16434
1.15577
1.14661
1.13798
1.13005
1.12295
1.11472
1.10163
1.10166
1.13744
1.17882
1.16616
1.07891
0.949071
0.775671
0.620765
0.51415
0.46978
0.485103
0.552567
0.668167
0.80665
0.922735
0.995604
1.03547
1.29816
1.32351
1.33844
1.31493
1.23922
1.16972
1.14412
1.1436
1.15506
1.17009
1.18522
1.199
1.21075
1.22021
1.22693
1.23145
1.23403
1.23475
1.23383
1.23038
1.22306
1.21505
1.20653
1.19788
1.18938
1.18004
1.17034
1.16143
1.15338
1.1456
1.13388
1.11667
1.11402
1.14492
1.17411
1.19121
1.14024
1.05268
0.95903
0.886141
0.868279
0.897221
0.966503
1.05451
1.12969
1.1762
1.1827
1.17895
1.1311
1.15412
1.10348
1.01416
0.94191
0.936513
0.963572
0.99792
1.0287
1.05795
1.0851
1.10988
1.13216
1.15186
1.16904
1.18484
1.19788
1.20804
1.21541
1.2201
1.22229
1.22269
1.22149
1.21895
1.21537
1.2096
1.20089
1.19233
1.18435
1.17748
1.17012
1.15738
1.1364
1.12931
1.16701
1.20031
1.22839
1.23065
1.20712
1.18325
1.1783
1.1844
1.19354
1.20748
1.22078
1.22311
1.2009
1.17573
0.919305
0.819489
0.650829
0.474798
0.428713
0.492504
0.568097
0.637284
0.700863
0.760045
0.815528
0.867637
0.916437
0.961729
1.00281
1.03672
1.06808
1.09635
1.12118
1.14233
1.15981
1.17374
1.18568
1.19445
1.20008
1.20293
1.2035
1.20242
1.20012
1.19743
1.19455
1.18985
1.1755
1.14564
1.16023
1.18109
1.19242
1.2018
1.20466
1.20085
1.19508
1.19003
1.18193
1.17169
1.16807
1.15869
1.13675
1.10904
0.528149
0.313134
0.183133
0.104203
0.0942115
0.128411
0.169072
0.210158
0.252322
0.296886
0.344594
0.395925
0.451159
0.510145
0.572206
0.636798
0.702436
0.767649
0.830803
0.890305
0.944815
0.993478
1.03274
1.06698
1.09642
1.12088
1.14042
1.15527
1.16559
1.17214
1.17729
1.18077
1.17951
1.16309
1.15098
1.1708
1.17896
1.17119
1.16259
1.1578
1.15682
1.15368
1.14677
1.13626
1.1258
1.11043
1.09418
1.06998
0.130549
0.0532055
0.0264426
0.0132517
0.0120423
0.0181772
0.0255349
0.0333257
0.0418311
0.0514891
0.0627099
0.075966
0.091854
0.111046
0.134237
0.162211
0.195931
0.236277
0.283873
0.338887
0.400815
0.468675
0.541142
0.615905
0.690505
0.76239
0.829403
0.890347
0.943702
0.989119
1.02547
1.05598
1.08152
1.09906
1.10456
1.11483
1.12878
1.13092
1.13098
1.13083
1.13061
1.12779
1.12257
1.11752
1.11117
1.09993
1.0946
1.08166
0.0129312
0.00380121
0.00178778
0.000914992
0.000823541
0.00133757
0.00194863
0.00260181
0.00332604
0.00416212
0.00515013
0.00633873
0.00779375
0.00959601
0.0118429
0.0146623
0.0182351
0.0227941
0.0286323
0.0361157
0.0456813
0.0578896
0.0733638
0.0929068
0.117383
0.147545
0.183959
0.227228
0.276718
0.331359
0.390657
0.452029
0.513252
0.57403
0.625277
0.666969
0.708802
0.749724
0.783995
0.810154
0.832563
0.847349
0.851567
0.844468
0.830229
0.826124
0.83584
0.849881
0.000340771
7.71958e-05
3.53795e-05
1.73664e-05
1.74811e-05
3.00939e-05
4.50036e-05
6.10148e-05
7.89146e-05
9.97471e-05
0.000124542
0.000154562
0.000191539
0.000237615
0.000295427
0.000368485
0.000461759
0.000581794
0.000737062
0.000938558
0.00120013
0.0015405
0.00198279
0.00255961
0.00331303
0.00429346
0.00556261
0.0072109
0.00930792
0.0119387
0.0152348
0.0192428
0.0239966
0.0298247
0.0362506
0.0425032
0.0496006
0.0572446
0.065158
0.0731627
0.0809123
0.0870125
0.0904041
0.0884683
0.0827359
0.0823057
0.0882259
0.104077
0.00555153
0.00140489
0.000706254
0.00050333
0.000418425
0.000377476
0.000361325
0.000367655
0.000394265
0.000443916
0.000530978
0.000709463
0.00133547
0.00237272
0.00069848
4.29961e-06
1.05763e-05
2.68968e-05
9.54958e-05
0.000209978
0.000393174
0.00069949
0.00122162
0.00211442
0.00361095
0.00607214
0.0102193
0.0182536
0.0372762
0.106541
0.0680499
0.0449727
0.0261465
0.0189038
0.0156629
0.014076
0.0134121
0.013557
0.0144092
0.0160533
0.0189847
0.0250708
0.0433153
0.0689636
0.0257613
0.000140855
3.33148e-05
0.00131523
0.00364655
0.00728575
0.012827
0.02153
0.0352497
0.061741
0.0969348
0.146335
0.213591
0.302932
0.407458
0.414514
0.241468
0.299224
0.221879
0.168813
0.135891
0.122966
0.117391
0.118132
0.124356
0.136574
0.158291
0.202076
0.302082
0.400303
0.206433
0.0130565
0.00112842
0.01784
0.0388819
0.069196
0.111797
0.171276
0.250507
0.363635
0.476523
0.586841
0.685778
0.757799
0.78337
0.406607
0.460675
0.687424
0.655734
0.57937
0.51268
0.479719
0.464761
0.465964
0.481546
0.511672
0.562285
0.652473
0.784939
0.852523
0.625173
0.165036
0.0432264
0.11681
0.198572
0.299489
0.415432
0.539364
0.660044
0.77899
0.865983
0.927378
0.962649
0.956066
0.927717
0.315942
0.637876
0.956179
1.01737
0.999872
0.960951
0.936189
0.924642
0.925653
0.938721
0.963386
1.00249
1.05904
1.11323
1.09651
0.968364
0.668835
0.335407
0.397909
0.519377
0.644998
0.761559
0.859895
0.935236
0.99196
1.01897
1.02681
1.01455
0.954665
1.00322
1.16094
0.754382
1.0751
1.18961
1.21649
1.21242
1.2059
1.20367
1.20547
1.21242
1.22511
1.24651
1.28397
1.29214
1.2047
1.11495
1.10447
0.866378
0.723618
0.786013
0.863904
0.933708
0.984871
1.01281
1.02288
1.01567
0.992949
0.950162
0.865414
1.18636
2.34723
0.818953
1.12416
1.2779
1.34004
1.36158
1.36954
1.37565
1.37962
1.3842
1.39091
1.40309
1.42569
1.39788
1.24232
1.16955
1.31207
1.19409
0.945042
0.919403
0.942538
0.970096
0.984901
0.981896
0.962083
0.928274
0.889404
0.863094
0.859236
1.51908
3.40739
0.835316
1.14351
1.313
1.39972
1.43965
1.45902
1.47306
1.48028
1.48469
1.48908
1.49937
1.51979
1.4649
1.23937
1.16907
1.40591
1.38567
1.09444
1.00199
0.96778
0.955186
0.937003
0.90664
0.867672
0.831225
0.81756
0.86966
1.0462
1.82534
4.01097
0.795977
1.11093
1.33427
1.44527
1.48921
1.51205
1.53345
1.54609
1.55385
1.56255
1.58777
1.62832
1.53981
1.23012
1.13708
1.44121
1.49177
1.2247
1.07725
0.997105
0.943635
0.896431
0.847983
0.805247
0.786858
0.822908
0.990843
1.22996
1.99489
4.12469
0.681862
1.00342
1.26856
1.42752
1.52479
1.58843
1.63488
1.66021
1.67206
1.67499
1.67365
1.66444
1.48934
1.09864
1.08012
1.44939
1.56612
1.34168
1.16673
1.04566
0.95979
0.888811
0.829007
0.789438
0.793586
0.877757
1.08711
1.37111
2.03212
3.87627
0.480771
0.760848
1.09906
1.28611
1.41925
1.51753
1.58189
1.61876
1.63465
1.63283
1.61241
1.56365
1.28319
0.83097
0.970466
1.42267
1.59954
1.44513
1.26207
1.11605
1.00695
0.915229
0.845431
0.806944
0.825892
0.942393
1.15342
1.44702
1.98476
3.43479
0.24715
0.402013
0.765665
1.01186
1.15998
1.27778
1.34951
1.39344
1.41192
1.40522
1.36731
1.28275
0.900866
0.354228
0.773802
1.35097
1.58087
1.52435
1.34907
1.19345
1.06822
0.967662
0.885994
0.842791
0.864966
0.994622
1.18748
1.471
1.90083
2.95447
0.0937557
0.109994
0.299654
0.494542
0.676
0.812369
0.901083
0.9541
0.974002
0.959644
0.898442
0.769293
0.35894
0.00586219
0.48807
1.2222
1.50822
1.54013
1.41912
1.26632
1.13632
1.02864
0.940672
0.887728
0.904188
1.02051
1.20072
1.4661
1.81506
2.53881
0.0396124
0.00895376
0.0488713
0.0978832
0.153612
0.201013
0.241322
0.269012
0.279461
0.26912
0.233638
0.187967
0.173225
0.281289
0.239924
1.02986
1.36775
1.4477
1.42827
1.3125
1.18865
1.08009
0.993724
0.931373
0.938945
1.03764
1.20474
1.45439
1.7515
2.23962
0.0287314
0.00361602
0.00152599
0.00483613
0.0091468
0.013771
0.018097
0.0216807
0.0241692
0.0257838
0.0282951
0.0503218
0.246836
0.896014
0.20183
0.75488
1.16212
1.2724
1.32
1.28596
1.19125
1.09506
1.01268
0.952024
0.956873
1.04826
1.21151
1.45604
1.72847
2.0683
0.0259337
0.0119411
0.00424387
0.00290494
0.00276274
0.00304903
0.00379103
0.00520895
0.00775011
0.0124262
0.0222774
0.0533451
0.289278
1.06213
0.37328
0.456159
0.895422
1.03632
1.09994
1.12495
1.09707
1.03387
0.966918
0.919383
0.943944
1.05789
1.23791
1.49412
1.76411
2.01605
0.0226232
0.0144264
0.00769939
0.00657958
0.00672546
0.00720818
0.00813433
0.00975922
0.0125984
0.0177621
0.0285337
0.0586091
0.274428
1.03896
0.598093
0.273986
0.562097
0.716254
0.800948
0.837433
0.862159
0.843502
0.815219
0.819125
0.910002
1.08736
1.30655
1.58399
1.85712
2.04729
0.0186706
0.0131758
0.00788391
0.0068989
0.00722896
0.00785753
0.00888759
0.0105889
0.0134666
0.018617
0.0293157
0.0573508
0.239599
0.936245
0.721725
0.229508
0.318615
0.420393
0.484868
0.520059
0.541364
0.575995
0.613911
0.704125
0.909726
1.14939
1.40206
1.68401
1.94262
2.0775
0.0146671
0.0109478
0.00699945
0.00608594
0.00645718
0.00712272
0.0081633
0.00986065
0.0126976
0.0177264
0.0281079
0.0539037
0.202456
0.772051
0.723197
0.251237
0.208776
0.250697
0.286928
0.31754
0.34896
0.396486
0.482748
0.64074
0.935442
1.19003
1.44376
1.70428
1.93074
2.02203
0.0110233
0.00863559
0.00589828
0.00509212
0.00547761
0.00616521
0.00720709
0.00888894
0.0116668
0.0165337
0.0264647
0.0499115
0.167897
0.615867
0.649968
0.27716
0.176227
0.182098
0.199882
0.22599
0.263358
0.32276
0.42538
0.603265
0.913584
1.17303
1.40523
1.63246
1.82283
1.88519
0.00791671
0.0065753
0.00481483
0.00416331
0.00455956
0.00526868
0.0063147
0.00797705
0.0106812
0.0153493
0.0247119
0.045733
0.137152
0.477238
0.546315
0.28278
0.16823
0.156307
0.164446
0.186182
0.223059
0.283257
0.383219
0.55245
0.831461
1.11167
1.31463
1.50718
1.66429
1.70757
0.0053836
0.00487707
0.00385426
0.00338226
0.00378516
0.00450871
0.00555466
0.00718593
0.00979354
0.014218
0.0228977
0.0414433
0.110545
0.360138
0.438639
0.267654
0.162217
0.142605
0.145906
0.163707
0.196897
0.251849
0.341293
0.486726
0.716263
1.02334
1.19554
1.35561
1.4838
1.51425
0.00349389
0.00353504
0.0030417
0.00275549
0.00316235
0.00388967
0.00492623
0.00650963
0.0089921
0.0131239
0.0210168
0.0370703
0.0880494
0.265231
0.340085
0.238718
0.152214
0.130331
0.131107
0.145512
0.173863
0.220982
0.296023
0.412734
0.589559
0.835878
1.06281
1.19349
1.29683
1.31841
0.00215945
0.00251753
0.00238811
0.00227349
0.00268024
0.00339727
0.00441033
0.00592515
0.00825068
0.0120406
0.0190634
0.0326507
0.069409
0.191015
0.256046
0.202816
0.138029
0.116985
0.116297
0.12774
0.151064
0.189724
0.249867
0.339687
0.468176
0.640264
0.845604
1.02968
1.11152
1.12689
0.0012629
0.0017573
0.00186724
0.00189966
0.00230359
0.00299688
0.0039711
0.00539637
0.0075342
0.0109388
0.017038
0.0282415
0.0542073
0.134799
0.18771
0.165098
0.120872
0.102608
0.101064
0.109941
0.128553
0.159168
0.205562
0.272049
0.361779
0.475755
0.607997
0.745592
0.865331
0.887468
0.000705462
0.00121067
0.00146076
0.00160729
0.00200524
0.00266193
0.00358087
0.00489608
0.00681882
0.00980478
0.0149632
0.0239317
0.0419507
0.0934559
0.134134
0.129139
0.102133
0.0877793
0.0858839
0.0925955
0.107058
0.130563
0.165181
0.21272
0.27377
0.346441
0.42696
0.509846
0.580946
0.594221
0.000387803
0.000828717
0.00114377
0.00136954
0.00175833
0.00236784
0.00321561
0.00440241
0.00608909
0.00863782
0.0128768
0.0198272
0.0321366
0.0638722
0.0934463
0.097226
0.0831437
0.0730994
0.0713216
0.0762875
0.087258
0.10481
0.129873
0.162866
0.203178
0.248916
0.29693
0.344154
0.383641
0.392566
0.000231888
0.000571973
0.000897382
0.00116793
0.00154291
0.00209707
0.00285935
0.00390262
0.00534071
0.00745119
0.0108281
0.0160327
0.0243138
0.0432157
0.0634903
0.0705654
0.0651186
0.0591125
0.0578365
0.0614837
0.0696275
0.0824023
0.100053
0.12235
0.148366
0.176549
0.205
0.232112
0.253784
0.258392
0.000180953
0.000408529
0.00070832
0.000991547
0.00134529
0.00183802
0.00250365
0.00339323
0.00458062
0.0062709
0.00887396
0.0126372
0.0181154
0.029073
0.0421425
0.0494757
0.0490425
0.0463046
0.0457491
0.0484773
0.0544149
0.0634927
0.0756055
0.090312
0.106772
0.123901
0.140594
0.156079
0.168148
0.170361
0.000195943
0.000313202
0.0005683
0.00083737
0.00115989
0.00158662
0.00214901
0.00288148
0.00382739
0.00513343
0.00707243
0.00970173
0.0132583
0.0195123
0.0274394
0.0336168
0.03555
0.0350736
0.0352502
0.0373859
0.0416635
0.0479734
0.0560856
0.0655636
0.0757819
0.086056
0.0957797
0.104594
0.11132
0.112225
0.000250373
0.000265825
0.000470585
0.000706717
0.000987632
0.00134514
0.00180305
0.00238306
0.00310776
0.00407977
0.00547538
0.00725449
0.00951922
0.0130835
0.0176405
0.02224
0.0248682
0.0256744
0.0264165
0.0281782
0.0312477
0.0355506
0.0408617
0.0468377
0.0530643
0.0591418
0.0647539
0.0697439
0.0735032
0.0737081
0.000325453
0.000249925
0.000407308
0.000600988
0.000832872
0.00112025
0.001478
0.00191828
0.00245106
0.00314764
0.00411967
0.00528999
0.00670794
0.00876173
0.0112833
0.0144192
0.0168595
0.0181777
0.0192262
0.0207206
0.0229286
0.0258202
0.0292296
0.0329238
0.036653
0.040199
0.0434059
0.0462108
0.0483163
0.048156
0.000406258
0.000251896
0.000368796
0.000518609
0.000699368
0.000919442
0.00118653
0.00150623
0.00188182
0.00236313
0.00302037
0.00377257
0.00464992
0.00585431
0.00722668
0.00923227
0.0111409
0.0124745
0.0135746
0.0148275
0.0164182
0.0183424
0.020498
0.0227454
0.024946
0.0269889
0.0288026
0.0303653
0.031544
0.0312141
0.000479397
0.00026056
0.00034464
0.00045459
0.000587661
0.000747571
0.000937571
0.00115949
0.00141361
0.00173525
0.00216872
0.0026437
0.0031832
0.00390208
0.00465193
0.00588152
0.00722408
0.00832608
0.00929543
0.0102991
0.0114357
0.0127066
0.0140561
0.015409
0.0166947
0.0178609
0.0188781
0.0197415
0.0204
0.0200217
0.000532598
0.00026708
0.000325369
0.000402135
0.000494833
0.000605008
0.000733732
0.000881119
0.0010465
0.00125532
0.0015358
0.00183187
0.00216263
0.00259758
0.00301331
0.00374901
0.00462745
0.00542981
0.00618088
0.00693333
0.00772492
0.00855322
0.00938927
0.0101959
0.0109402
0.0116003
0.0121662
0.0126394
0.013006
0.0126589
0.000556334
0.000265357
0.000304031
0.000355065
0.000416378
0.000488556
0.000571818
0.000665765
0.000769682
0.000902136
0.00108133
0.00126414
0.00146635
0.00173182
0.00196498
0.00239927
0.00294623
0.00348077
0.0040071
0.00453228
0.00506278
0.0055921
0.00610442
0.00658207
0.00701105
0.00738348
0.00769748
0.0079561
0.00816045
0.007883
0.000546047
0.000252233
0.000276567
0.000308817
0.000347417
0.000392532
0.000444132
0.000501821
0.000565111
0.000647704
0.000761448
0.000873455
0.000996111
0.00115849
0.00128939
0.00154283
0.00187126
0.00220414