/*--------------------------------*- C++ -*----------------------------------*\
| =========                 |                                                 |
| \\      /  F ield         | OpenFOAM: The Open Source CFD Toolbox           |
|  \\    /   O peration     | Version:  2212                                  |
|   \\  /    A nd           | Website:  www.openfoam.com                      |
|    \\/     M anipulation  |                                                 |
\*---------------------------------------------------------------------------*/
FoamFile
{
    version     2.0;
    format      ascii;
    arch        "LSB;label=32;scalar=64";
    class       surfaceScalarField;
    location    "10000";
    object      phi;
}
// * * * * * * * * * * * * * * * * * * * * * * * * * * * * * * * * * * * * * //

dimensions      [1 0 -1 0 0 0 0];

oriented        oriented;

internalField   nonuniform List<scalar> 
35842
(
1.78161e-08
1.86483e-08
1.96705e-08
2.08539e-08
2.20885e-08
2.33654e-08
2.46812e-08
2.60339e-08
2.74216e-08
2.8843e-08
3.02961e-08
3.17785e-08
3.32866e-08
3.48175e-08
3.63669e-08
3.79315e-08
3.9508e-08
4.10943e-08
4.26899e-08
4.42962e-08
4.59175e-08
4.75608e-08
4.92356e-08
5.09544e-08
5.27321e-08
5.45867e-08
5.65364e-08
5.86009e-08
6.08148e-08
6.31849e-08
6.57264e-08
6.84659e-08
7.14159e-08
7.45695e-08
7.79584e-08
8.15543e-08
8.53753e-08
8.94083e-08
9.36423e-08
9.80685e-08
1.02676e-07
1.07456e-07
1.124e-07
1.17494e-07
1.22626e-07
1.2756e-07
1.3229e-07
-6.64362e-10
-8.31111e-10
7.38482e-08
-1.02052e-09
7.7087e-08
-1.18174e-09
8.10706e-08
-1.23287e-09
8.56791e-08
-1.27522e-09
9.04619e-08
-1.31426e-09
9.53849e-08
-1.3512e-09
1.00436e-07
-1.38662e-09
1.0561e-07
-1.42061e-09
1.10901e-07
-1.45273e-09
1.16305e-07
-1.48245e-09
1.21816e-07
-1.50864e-09
1.27425e-07
-1.53173e-09
1.33119e-07
-1.55046e-09
1.38887e-07
-1.56568e-09
1.44713e-07
-1.57746e-09
1.50584e-07
-1.58705e-09
1.56487e-07
-1.59612e-09
1.62414e-07
-1.60661e-09
1.68363e-07
-1.62166e-09
1.74339e-07
-1.6437e-09
1.80358e-07
-1.67544e-09
1.86445e-07
-1.71971e-09
1.92637e-07
-1.7785e-09
1.9898e-07
-1.85506e-09
2.0553e-07
-1.94963e-09
2.12355e-07
-2.0638e-09
2.19523e-07
-2.21256e-09
2.27107e-07
-2.36852e-09
2.35238e-07
-2.54015e-09
2.43941e-07
-2.73868e-09
2.53273e-07
-2.95012e-09
2.63333e-07
-3.15493e-09
2.74167e-07
-3.39122e-09
2.8575e-07
-3.59931e-09
2.982e-07
-3.82497e-09
3.1141e-07
-4.03712e-09
3.25448e-07
-4.23769e-09
3.40267e-07
-4.42894e-09
3.55823e-07
-4.60881e-09
3.72087e-07
-4.77937e-09
3.89018e-07
-4.94122e-09
4.06585e-07
-5.0888e-09
4.24758e-07
-5.12457e-09
4.43485e-07
-4.92609e-09
4.62346e-07
-4.72193e-09
4.80461e-07
-4.52581e-09
4.97809e-07
-3.23593e-09
-4.06302e-09
1.75613e-07
-4.99468e-09
1.82766e-07
-5.78058e-09
1.91592e-07
-6.00601e-09
2.01795e-07
-6.18908e-09
2.12317e-07
-6.3577e-09
2.23085e-07
-6.51799e-09
2.34077e-07
-6.67273e-09
2.45284e-07
-6.82197e-09
2.567e-07
-6.96324e-09
2.68321e-07
-7.09346e-09
2.80136e-07
-7.20676e-09
2.92129e-07
-7.30507e-09
3.04273e-07
-7.38213e-09
3.16545e-07
-7.44202e-09
3.28909e-07
-7.48518e-09
3.41338e-07
-7.51764e-09
3.53805e-07
-7.54746e-09
3.6629e-07
-7.58388e-09
3.7879e-07
-7.64189e-09
3.91313e-07
-7.73307e-09
4.03893e-07
-7.87022e-09
4.16585e-07
-8.06689e-09
4.29465e-07
-8.33261e-09
4.42632e-07
-8.68284e-09
4.56202e-07
-9.11843e-09
4.70319e-07
-9.64675e-09
4.85127e-07
-1.034e-08
5.00782e-07
-1.10657e-08
5.17563e-07
-1.1865e-08
5.35519e-07
-1.27929e-08
5.54768e-07
-1.37825e-08
5.75524e-07
-1.47404e-08
5.97884e-07
-1.58499e-08
6.21788e-07
-1.68241e-08
6.47494e-07
-1.78825e-08
6.74769e-07
-1.88755e-08
7.03763e-07
-1.98126e-08
7.34372e-07
-2.07052e-08
7.6651e-07
-2.15443e-08
8.00113e-07
-2.23405e-08
8.35103e-07
-2.30977e-08
8.71416e-07
-2.37899e-08
9.08993e-07
-2.39525e-08
9.47731e-07
-2.3003e-08
9.86739e-07
-2.20318e-08
1.02415e-06
-2.11056e-08
1.05992e-06
-8.88199e-09
-1.11953e-08
3.52602e-07
-1.37935e-08
3.65862e-07
-1.59565e-08
3.82291e-07
-1.6502e-08
4.01271e-07
-1.69324e-08
4.20706e-07
-1.73286e-08
4.40464e-07
-1.7708e-08
4.60515e-07
-1.8078e-08
4.80854e-07
-1.84378e-08
5.01481e-07
-1.87794e-08
5.22397e-07
-1.90933e-08
5.43589e-07
-1.93622e-08
5.65035e-07
-1.95909e-08
5.86689e-07
-1.97615e-08
6.08511e-07
-1.98852e-08
6.30438e-07
-1.9963e-08
6.5242e-07
-2.00114e-08
6.74406e-07
-2.00523e-08
6.96361e-07
-2.01106e-08
7.18276e-07
-2.02265e-08
7.40165e-07
-2.04311e-08
7.62089e-07
-2.07582e-08
7.84143e-07
-2.12439e-08
8.06462e-07
-2.19134e-08
8.29222e-07
-2.2808e-08
8.52629e-07
-2.39295e-08
8.76937e-07
-2.52977e-08
9.02403e-07
-2.71097e-08
9.29302e-07
-2.90042e-08
9.58136e-07
-3.10955e-08
9.88984e-07
-3.35338e-08
1.02205e-06
-3.61377e-08
1.05773e-06
-3.86542e-08
1.09618e-06
-4.1581e-08
1.13729e-06
-4.41398e-08
1.18153e-06
-4.69257e-08
1.22847e-06
-4.95348e-08
1.2784e-06
-5.19943e-08
1.33112e-06
-5.43367e-08
1.38649e-06
-5.65397e-08
1.4444e-06
-5.8634e-08
1.50472e-06
-6.06309e-08
1.56735e-06
-6.24615e-08
1.63219e-06
-6.28785e-08
1.69906e-06
-6.0322e-08
1.76639e-06
-5.77205e-08
1.83085e-06
-5.52556e-08
1.89239e-06
-1.92825e-08
-2.44123e-08
6.50761e-07
-3.01654e-08
6.73228e-07
-3.48799e-08
7.012e-07
-3.58833e-08
7.33499e-07
-3.66401e-08
7.66313e-07
-3.73369e-08
7.99422e-07
-3.80127e-08
8.328e-07
-3.86831e-08
8.6646e-07
-3.93441e-08
9.00427e-07
-3.99759e-08
9.34718e-07
-4.05546e-08
9.69332e-07
-4.10402e-08
1.00424e-06
-4.14417e-08
1.03937e-06
-4.17186e-08
1.07467e-06
-4.18945e-08
1.11002e-06
-4.19709e-08
1.14536e-06
-4.19831e-08
1.18059e-06
-4.19777e-08
1.21565e-06
-4.20076e-08
1.25053e-06
-4.21591e-08
1.28524e-06
-4.24971e-08
1.31989e-06
-4.30932e-08
1.35463e-06
-4.40235e-08
1.38967e-06
-4.53404e-08
1.42531e-06
-4.71319e-08
1.46187e-06
-4.94003e-08
1.49976e-06
-5.21884e-08
1.53941e-06
-5.59216e-08
1.58126e-06
-5.98192e-08
1.62612e-06
-6.41307e-08
1.67413e-06
-6.91807e-08
1.7256e-06
-7.45797e-08
1.78115e-06
-7.97859e-08
1.84108e-06
-8.58691e-08
1.90518e-06
-9.11617e-08
1.97421e-06
-9.69421e-08
2.0475e-06
-1.02348e-07
2.12548e-06
-1.07441e-07
2.20787e-06
-1.12295e-07
2.29444e-06
-1.16866e-07
2.38503e-06
-1.21221e-07
2.47944e-06
-1.25386e-07
2.57752e-06
-1.29214e-07
2.67913e-06
-1.30059e-07
2.78399e-06
-1.24618e-07
2.88956e-06
-1.19111e-07
2.9904e-06
-1.13923e-07
3.08651e-06
-3.67701e-08
-4.67973e-08
1.14005e-06
-5.80319e-08
1.17596e-06
-6.70757e-08
1.22093e-06
-6.85973e-08
1.27284e-06
-6.96582e-08
1.32512e-06
-7.06373e-08
1.37741e-06
-7.16123e-08
1.42974e-06
-7.26106e-08
1.48215e-06
-7.36203e-08
1.53475e-06
-7.4597e-08
1.58758e-06
-7.54897e-08
1.64067e-06
-7.62155e-08
1.69401e-06
-7.67894e-08
1.7475e-06
-7.7129e-08
1.80104e-06
-7.72785e-08
1.8545e-06
-7.72384e-08
1.90773e-06
-7.70746e-08
1.9606e-06
-7.68747e-08
2.01303e-06
-7.67369e-08
2.06496e-06
-7.68238e-08
2.11644e-06
-7.72553e-08
2.16762e-06
-7.81645e-08
2.21871e-06
-7.96921e-08
2.27006e-06
-8.19342e-08
2.32211e-06
-8.50554e-08
2.37536e-06
-8.9057e-08
2.43045e-06
-9.40194e-08
2.488e-06
-1.0075e-07
2.54869e-06
-1.07764e-07
2.61382e-06
-1.1554e-07
2.68351e-06
-1.24696e-07
2.75828e-06
-1.34494e-07
2.83908e-06
-1.43918e-07
2.92633e-06
-1.54991e-07
3.01972e-06
-1.64572e-07
3.12044e-06
-1.75078e-07
3.22742e-06
-1.8489e-07
3.34138e-06
-1.94135e-07
3.46186e-06
-2.02957e-07
3.58855e-06
-2.11277e-07
3.72122e-06
-2.19226e-07
3.85959e-06
-2.26852e-07
4.00345e-06
-2.33883e-07
4.15262e-06
-2.35384e-07
4.30672e-06
-2.25219e-07
4.46182e-06
-2.14983e-07
4.60963e-06
-2.05397e-07
4.75016e-06
-6.44663e-08
-8.25624e-08
1.92404e-06
-1.02824e-07
1.97895e-06
-1.18814e-07
2.04822e-06
-1.20699e-07
2.12818e-06
-1.21801e-07
2.20788e-06
-1.22831e-07
2.28684e-06
-1.23928e-07
2.36517e-06
-1.25138e-07
2.44303e-06
-1.26428e-07
2.52063e-06
-1.27708e-07
2.59815e-06
-1.28876e-07
2.67566e-06
-1.29775e-07
2.75318e-06
-1.30425e-07
2.83059e-06
-1.30671e-07
2.90777e-06
-1.3059e-07
2.98451e-06
-1.30176e-07
3.06062e-06
-1.29544e-07
3.13588e-06
-1.28842e-07
3.21016e-06
-1.2824e-07
3.28341e-06
-1.2802e-07
3.35564e-06
-1.28385e-07
3.42709e-06
-1.29563e-07
3.49809e-06
-1.31794e-07
3.56912e-06
-1.3524e-07
3.64083e-06
-1.40184e-07
3.71397e-06
-1.46622e-07
3.78945e-06
-1.54693e-07
3.86821e-06
-1.6581e-07
3.95122e-06
-1.77367e-07
4.04039e-06
-1.90213e-07
4.1359e-06
-2.05428e-07
4.23847e-06
-2.21732e-07
4.34952e-06
-2.37363e-07
4.46965e-06
-2.5585e-07
4.59837e-06
-2.71748e-07
4.73748e-06
-2.89265e-07
4.88537e-06
-3.05606e-07
5.04313e-06
-3.21006e-07
5.21014e-06
-3.35724e-07
5.38592e-06
-3.49634e-07
5.5702e-06
-3.62967e-07
5.7626e-06
-3.75807e-07
5.96288e-06
-3.87683e-07
6.17081e-06
-3.90134e-07
6.38587e-06
-3.72669e-07
6.6023e-06
-3.55184e-07
6.80795e-06
-3.38905e-07
7.00294e-06
-1.0636e-07
-1.37242e-07
3.15071e-06
-1.71804e-07
3.23157e-06
-1.98489e-07
3.3345e-06
-2.00123e-07
3.45334e-06
-2.00522e-07
3.57041e-06
-2.00945e-07
3.68512e-06
-2.01631e-07
3.79774e-06
-2.02642e-07
3.90871e-06
-2.03905e-07
4.01845e-06
-2.05246e-07
4.12734e-06
-2.06473e-07
4.23558e-06
-2.07299e-07
4.34327e-06
-2.0775e-07
4.45028e-06
-2.0755e-07
4.55648e-06
-2.06819e-07
4.66156e-06
-2.0554e-07
4.76526e-06
-2.03896e-07
4.86728e-06
-2.0213e-07
4.96742e-06
-2.00513e-07
5.06557e-06
-1.99506e-07
5.16178e-06
-1.99437e-07
5.25637e-06
-2.00669e-07
5.34979e-06
-2.03592e-07
5.44275e-06
-2.0846e-07
5.53614e-06
-2.15733e-07
5.63102e-06
-2.25394e-07
5.72869e-06
-2.37668e-07
5.83045e-06
-2.54891e-07
5.93769e-06
-2.72741e-07
6.05315e-06
-2.9264e-07
6.177e-06
-3.16376e-07
6.31024e-06
-3.41844e-07
6.45492e-06
-3.6617e-07
6.61186e-06
-3.95166e-07
6.78032e-06
-4.19926e-07
6.96294e-06
-4.47366e-07
7.15736e-06
-4.72934e-07
7.36523e-06
-4.97041e-07
7.58566e-06
-5.20129e-07
7.81805e-06
-5.42006e-07
8.06205e-06
-5.63056e-07
8.3172e-06
-5.83413e-07
8.58323e-06
-6.02315e-07
8.8599e-06
-6.06084e-07
9.14654e-06
-5.77832e-07
9.43501e-06
-5.49726e-07
9.70811e-06
-5.23722e-07
9.96617e-06
-1.67253e-07
-2.17766e-07
5.02186e-06
-2.74281e-07
5.13687e-06
-3.16884e-07
5.28482e-06
-3.1678e-07
5.4557e-06
-3.14856e-07
5.62182e-06
-3.13254e-07
5.78247e-06
-3.12355e-07
5.93833e-06
-3.12233e-07
6.09027e-06
-3.12734e-07
6.23914e-06
-3.13533e-07
6.38568e-06
-3.14281e-07
6.53035e-06
-3.14483e-07
6.67337e-06
-3.1416e-07
6.81466e-06
-3.1284e-07
6.9541e-06
-3.10705e-07
7.09127e-06
-3.07711e-07
7.22582e-06
-3.04135e-07
7.35735e-06
-3.00353e-07
7.48556e-06
-2.96784e-07
7.6103e-06
-2.94146e-07
7.73164e-06
-2.92942e-07
7.84998e-06
-2.93731e-07
7.96598e-06
-2.97109e-07
8.08056e-06
-3.0346e-07
8.19498e-06
-3.135e-07
8.31065e-06
-3.27183e-07
8.42937e-06
-3.44856e-07
8.5529e-06
-3.70213e-07
8.68313e-06
-3.96397e-07
8.82388e-06
-4.25683e-07
8.97527e-06
-4.60908e-07
9.13864e-06
-4.98762e-07
9.31684e-06
-5.34764e-07
9.51098e-06
-5.78075e-07
9.71997e-06
-6.14758e-07
9.94756e-06
-6.55695e-07
1.01904e-05
-6.93797e-07
1.04509e-05
-7.29748e-07
1.0728e-05
-7.6427e-07
1.10207e-05
-7.97085e-07
1.13287e-05
-8.28798e-07
1.16516e-05
-8.59623e-07
1.1989e-05
-8.88368e-07
1.23407e-05
-8.93917e-07
1.2706e-05
-8.50304e-07
1.30737e-05
-8.07228e-07
1.34202e-05
-7.67647e-07
1.37463e-05
-2.52451e-07
-3.32276e-07
7.79591e-06
-4.21552e-07
7.95386e-06
-4.87126e-07
8.15961e-06
-4.8229e-07
8.39747e-06
-4.74961e-07
8.62514e-06
-4.68651e-07
8.84195e-06
-4.63941e-07
9.04931e-06
-4.60893e-07
9.24887e-06
-4.59192e-07
9.44222e-06
-4.58259e-07
9.63068e-06
-4.57482e-07
9.81517e-06
-4.56028e-07
9.99618e-06
-4.53898e-07
1.01737e-05
-4.50311e-07
1.03477e-05
-4.4553e-07
1.05176e-05
-4.39454e-07
1.0683e-05
-4.32493e-07
1.08434e-05
-4.25202e-07
1.09983e-05
-4.182e-07
1.11476e-05
-4.12569e-07
1.12914e-05
-4.09047e-07
1.143e-05
-4.08462e-07
1.15646e-05
-4.11697e-07
1.16961e-05
-4.19305e-07
1.18264e-05
-4.32357e-07
1.19572e-05
-4.50752e-07
1.2091e-05
-4.7501e-07
1.22301e-05
-5.10771e-07
1.23769e-05
-5.4752e-07
1.25366e-05
-5.88787e-07
1.27092e-05
-6.38914e-07
1.28965e-05
-6.92881e-07
1.31023e-05
-7.4395e-07
1.33281e-05
-8.06061e-07
1.35722e-05
-8.5818e-07
1.38399e-05
-9.16824e-07
1.41267e-05
-9.71347e-07
1.44359e-05
-1.02285e-06
1.4766e-05
-1.07246e-06
1.5116e-05
-1.11979e-06
1.54856e-05
-1.16578e-06
1.58743e-05
-1.21073e-06
1.62819e-05
-1.25288e-06
1.67083e-05
-1.26079e-06
1.71525e-05
-1.19605e-06
1.76e-05
-1.13262e-06
1.80192e-05
-1.07479e-06
1.84115e-05
-3.67102e-07
-4.89523e-07
1.1775e-05
-6.26356e-07
1.1984e-05
-7.24086e-07
1.22606e-05
-7.09103e-07
1.25806e-05
-6.90999e-07
1.28814e-05
-6.75356e-07
1.31627e-05
-6.63008e-07
1.3427e-05
-6.53941e-07
1.36774e-05
-6.47552e-07
1.39167e-05
-6.42828e-07
1.41471e-05
-6.38735e-07
1.43702e-05
-6.33908e-07
1.4587e-05
-6.28299e-07
1.47977e-05
-6.20654e-07
1.50023e-05
-6.11333e-07
1.52003e-05
-6.00137e-07
1.53912e-05
-5.87644e-07
1.55742e-05
-5.74648e-07
1.57488e-05
-5.62027e-07
1.59149e-05
-5.51364e-07
1.60723e-05
-5.43702e-07
1.62219e-05
-5.40225e-07
1.63647e-05
-5.42194e-07
1.65023e-05
-5.50383e-07
1.66368e-05
-5.66337e-07
1.67706e-05
-5.89865e-07
1.69068e-05
-6.21714e-07
1.70481e-05
-6.70242e-07
1.71979e-05
-7.19809e-07
1.73629e-05
-7.75729e-07
1.75428e-05
-8.44457e-07
1.77398e-05
-9.18608e-07
1.7959e-05
-9.88372e-07
1.82022e-05
-1.07432e-06
1.84674e-05
-1.14568e-06
1.87614e-05
-1.22676e-06
1.90782e-05
-1.30207e-06
1.94225e-05
-1.3733e-06
1.97924e-05
-1.44219e-06
2.01868e-05
-1.50821e-06
2.06055e-05
-1.57274e-06
2.1048e-05
-1.63626e-06
2.15143e-05
-1.69617e-06
2.20047e-05
-1.70724e-06
2.25181e-05
-1.61439e-06
2.30358e-05
-1.52425e-06
2.35171e-05
-1.44282e-06
2.39644e-05
-5.15066e-07
-6.97658e-07
1.72647e-05
-9.0157e-07
1.75307e-05
-1.04291e-06
1.78888e-05
-1.00875e-06
1.83039e-05
-9.71185e-07
1.86858e-05
-9.38812e-07
1.9035e-05
-9.12752e-07
1.93562e-05
-8.92786e-07
1.96544e-05
-8.77793e-07
1.99343e-05
-8.66059e-07
2.01997e-05
-8.55879e-07
2.04531e-05
-8.45085e-07
2.06962e-05
-8.33525e-07
2.09295e-05
-8.19237e-07
2.11535e-05
-8.02706e-07
2.13674e-05
-7.83557e-07
2.15707e-05
-7.62579e-07
2.17625e-05
-7.40865e-07
2.19423e-05
-7.19625e-07
2.21097e-05
-7.01095e-07
2.22647e-05
-6.86708e-07
2.24082e-05
-6.78097e-07
2.25415e-05
-6.77013e-07
2.26667e-05
-6.84491e-07
2.27861e-05
-7.02707e-07
2.29029e-05
-7.3131e-07
2.30206e-05
-7.71349e-07
2.31429e-05
-8.34887e-07
2.32736e-05
-8.9928e-07
2.34213e-05
-9.72324e-07
2.35854e-05
-1.06337e-06
2.37685e-05
-1.16185e-06
2.39771e-05
-1.25387e-06
2.42134e-05
-1.36901e-06
2.44746e-05
-1.46343e-06
2.47699e-05
-1.57198e-06
2.50916e-05
-1.67269e-06
2.54457e-05
-1.76814e-06
2.583e-05
-1.86087e-06
2.62435e-05
-1.95024e-06
2.66862e-05
-2.03822e-06
2.71576e-05
-2.12549e-06
2.76583e-05
-2.20844e-06
2.81889e-05
-2.22375e-06
2.87488e-05
-2.09478e-06
2.93143e-05
-1.97088e-06
2.98347e-05
-1.86013e-06
3.03137e-05
-6.97365e-07
-9.62348e-07
2.44971e-05
-1.25796e-06
2.48207e-05
-1.45643e-06
2.52659e-05
-1.3891e-06
2.57831e-05
-1.31894e-06
2.62467e-05
-1.25883e-06
2.6659e-05
-1.21013e-06
2.70281e-05
-1.17217e-06
2.73621e-05
-1.14293e-06
2.76683e-05
-1.1196e-06
2.79523e-05
-1.09944e-06
2.82183e-05
-1.0791e-06
2.84691e-05
-1.05824e-06
2.87055e-05
-1.0339e-06
2.89285e-05
-1.00669e-06
2.91373e-05
-9.75957e-07
2.93315e-05
-9.42739e-07
2.951e-05
-9.08491e-07
2.96722e-05
-8.74817e-07
2.98176e-05
-8.44791e-07
2.99463e-05
-8.20308e-07
3.00592e-05
-8.0355e-07
3.0158e-05
-7.96875e-07
3.02449e-05
-8.01617e-07
3.03228e-05
-8.20751e-07
3.03952e-05
-8.53683e-07
3.04665e-05
-9.01848e-07
3.05407e-05
-9.82219e-07
3.06224e-05
-1.06285e-06
3.07222e-05
-1.15491e-06
3.08389e-05
-1.27161e-06
3.09754e-05
-1.39822e-06
3.11397e-05
-1.51561e-06
3.13347e-05
-1.66518e-06
3.15566e-05
-1.78614e-06
3.18172e-05
-1.92711e-06
3.21067e-05
-2.0578e-06
3.24332e-05
-2.18198e-06
3.27942e-05
-2.30329e-06
3.31886e-05
-2.42095e-06
3.36167e-05
-2.53779e-06
3.40788e-05
-2.65476e-06
3.45757e-05
-2.76693e-06
3.51091e-05
-2.78805e-06
3.56787e-05
-2.61434e-06
3.62561e-05
-2.44942e-06
3.67796e-05
-2.30382e-06
3.72548e-05
-9.10478e-07
-1.28435e-06
3.35161e-05
-1.70102e-06
3.38908e-05
-1.9715e-06
3.44198e-05
-1.85072e-06
3.50355e-05
-1.72947e-06
3.55703e-05
-1.62643e-06
3.60297e-05
-1.54301e-06
3.64265e-05
-1.4776e-06
3.67733e-05
-1.42671e-06
3.70806e-05
-1.38585e-06
3.73571e-05
-1.35076e-06
3.76086e-05
-1.31642e-06
3.78392e-05
-1.28221e-06
3.80506e-05
-1.24373e-06
3.82441e-05
-1.20176e-06
3.84191e-05
-1.15522e-06
3.85753e-05
-1.10543e-06
3.87116e-05
-1.05424e-06
3.88272e-05
-1.00372e-06
3.89216e-05
-9.57961e-07
3.89948e-05
-9.19376e-07
3.90479e-05
-8.90793e-07
3.90825e-05
-8.75284e-07
3.91012e-05
-8.74502e-07
3.91071e-05
-8.92408e-07
3.91042e-05
-9.28046e-07
3.90971e-05
-9.83337e-07
3.90905e-05
-1.0816e-06
3.90892e-05
-1.17888e-06
3.9106e-05
-1.29082e-06
3.91386e-05
-1.43561e-06
3.91904e-05
-1.5933e-06
3.92709e-05
-1.73816e-06
3.93834e-05
-1.92679e-06
3.95233e-05
-2.07688e-06
3.97052e-05
-2.25471e-06
3.99174e-05
-2.41946e-06
4.01699e-05
-2.5765e-06
4.04601e-05
-2.73096e-06
4.07871e-05
-2.88194e-06
4.1152e-05
-3.03335e-06
4.15554e-05
-3.18658e-06
4.19994e-05
-3.33507e-06
4.24865e-05
-3.36429e-06
4.30176e-05
-3.13722e-06
4.35594e-05
-2.92457e-06
4.40395e-05
-2.73953e-06
4.44659e-05
-1.14501e-06
-1.65701e-06
4.40523e-05
-2.22726e-06
4.44622e-05
-2.58458e-06
4.50593e-05
-2.38304e-06
4.57558e-05
-2.18659e-06
4.63374e-05
-2.02136e-06
4.68147e-05
-1.88833e-06
4.72074e-05
-1.78409e-06
4.75335e-05
-1.70286e-06
4.78081e-05
-1.63766e-06
4.80429e-05
-1.58211e-06
4.82459e-05
-1.52889e-06
4.84227e-05
-1.47696e-06
4.85757e-05
-1.42006e-06
4.87069e-05
-1.35911e-06
4.88159e-05
-1.29246e-06
4.89027e-05
-1.22168e-06
4.89659e-05
-1.14908e-06
4.90049e-05
-1.07718e-06
4.90189e-05
-1.01129e-06
4.90079e-05
-9.54347e-07
4.89728e-05
-9.09899e-07
4.89155e-05
-8.8183e-07
4.88382e-05
-8.72095e-07
4.87445e-05
-8.85827e-07
4.8638e-05
-9.21567e-07
4.85239e-05
-9.81827e-07
4.84066e-05
-1.09789e-06
4.82913e-05
-1.2108e-06
4.81925e-05
-1.34194e-06
4.81068e-05
-1.51583e-06
4.80376e-05
-1.70604e-06
4.79959e-05
-1.87889e-06
4.79855e-05
-2.1099e-06
4.80008e-05
-2.29031e-06
4.80595e-05
-2.50829e-06
4.81477e-05
-2.71015e-06
4.82779e-05
-2.90337e-06
4.84474e-05
-3.09494e-06
4.86558e-05
-3.28394e-06
4.89048e-05
-3.47566e-06
4.91961e-05
-3.67208e-06
4.95332e-05
-3.86477e-06
4.99201e-05
-3.9053e-06
5.03589e-05
-3.61717e-06
5.08126e-05
-3.35151e-06
5.11985e-05
-3.12425e-06
5.15277e-05
-1.38538e-06
-2.0645e-06
5.54372e-05
-2.82095e-06
5.58574e-05
-3.27782e-06
5.64931e-05
-2.96153e-06
5.72363e-05
-2.66113e-06
5.78259e-05
-2.41169e-06
5.82804e-05
-2.21269e-06
5.86282e-05
-2.05764e-06
5.88942e-05
-1.93726e-06
5.90981e-05
-1.84108e-06
5.92549e-05
-1.75983e-06
5.93749e-05
-1.68326e-06
5.94648e-05
-1.60977e-06
5.95279e-05
-1.53075e-06
5.9567e-05
-1.44728e-06
5.95817e-05
-1.3569e-06
5.95722e-05
-1.26144e-06
5.95374e-05
-1.16365e-06
5.94763e-05
-1.06647e-06
5.93882e-05
-9.76555e-07
5.92727e-05
-8.97371e-07
5.91307e-05
-8.3318e-07
5.89637e-05
-7.88752e-07
5.87736e-05
-7.66281e-07
5.85637e-05
-7.72245e-07
5.83373e-05
-8.04513e-07
5.80994e-05
-8.66312e-07
5.7854e-05
-9.9859e-07
5.76059e-05
-1.12432e-06
5.73712e-05
-1.27202e-06
5.71447e-05
-1.47393e-06
5.69298e-05
-1.696e-06
5.67388e-05
-1.89515e-06
5.65756e-05
-2.16987e-06
5.64339e-05
-2.37975e-06
5.63343e-05
-2.63939e-06
5.62611e-05
-2.87981e-06
5.62291e-05
-3.11113e-06
5.62358e-05
-3.3427e-06
5.62813e-05
-3.5736e-06
5.63685e-05
-3.81089e-06
5.65004e-05
-4.05739e-06
5.66817e-05
-4.30262e-06
5.69189e-05
-4.3587e-06
5.7216e-05
-4.00361e-06
5.75328e-05
-3.68205e-06
5.77785e-05
-3.41242e-06
5.79678e-05
-1.61135e-06
-2.48182e-06
6.66255e-05
-3.45261e-06
6.70242e-05
-4.0171e-06
6.7657e-05
-3.5474e-06
6.83981e-05
-3.11229e-06
6.89461e-05
-2.75665e-06
6.93307e-05
-2.47649e-06
6.95907e-05
-2.26028e-06
6.97582e-05
-2.09366e-06
6.98576e-05
-1.96153e-06
6.99064e-05
-1.85097e-06
6.99166e-05
-1.74813e-06
6.9896e-05
-1.6508e-06
6.98481e-05
-1.54752e-06
6.97763e-05
-1.43959e-06
6.96806e-05
-1.32352e-06
6.95613e-05
-1.20135e-06
6.94172e-05
-1.0762e-06
6.92475e-05
-9.51343e-07
6.90512e-05
-8.34906e-07
6.88274e-05
-7.30693e-07
6.85768e-05
-6.43698e-07
6.83001e-05
-5.79618e-07
6.79988e-05
-5.40716e-07
6.76754e-05
-5.3497e-07
6.73324e-05
-5.59405e-07
6.69741e-05
-6.18091e-07
6.66037e-05
-7.63263e-07
6.62252e-05
-8.97001e-07
6.58549e-05
-1.05641e-06
6.54862e-05
-1.28278e-06
6.51218e-05
-1.53339e-06
6.47751e-05
-1.75453e-06
6.445e-05
-2.07158e-06
6.41394e-05
-2.30755e-06
6.38666e-05
-2.60795e-06
6.36142e-05
-2.88619e-06
6.33995e-05
-3.15561e-06
6.32201e-05
-3.42834e-06
6.30769e-05
-3.70359e-06
6.29741e-05
-3.99059e-06
6.29159e-05
-4.29334e-06
6.29091e-05
-4.59925e-06
6.29624e-05
-4.67605e-06
6.30825e-05
-4.25068e-06
6.3228e-05
-3.87342e-06
6.33021e-05
-3.56447e-06
6.33236e-05
-1.80107e-06
-2.87701e-06
7.63652e-05
-4.08055e-06
7.67079e-05
-4.75357e-06
7.72888e-05
-4.09098e-06
7.79702e-05
-3.49283e-06
7.84235e-05
-3.01323e-06
7.8693e-05
-2.64144e-06
7.88291e-05
-2.35813e-06
7.88704e-05
-2.14206e-06
7.88443e-05
-1.97239e-06
7.87698e-05
-1.83184e-06
7.86595e-05
-1.70248e-06
7.85212e-05
-1.58151e-06
7.83587e-05
-1.45431e-06
7.81753e-05
-1.32245e-06
7.79713e-05
-1.18123e-06
7.77472e-05
-1.03281e-06
7.75019e-05
-8.80573e-07
7.72343e-05
-7.27946e-07
7.69435e-05
-5.84623e-07
7.66278e-05
-4.54417e-07
7.62877e-05
-3.43011e-07
7.5923e-05
-2.57098e-07
7.55336e-05
-1.98727e-07
7.51205e-05
-1.77476e-07
7.46857e-05
-1.89351e-07
7.42326e-05
-2.39411e-07
7.37632e-05
-3.92386e-07
7.32803e-05
-5.27428e-07
7.28006e-05
-6.91496e-07
7.23148e-05
-9.36038e-07
7.18244e-05
-1.20899e-06
7.13427e-05
-1.44502e-06
7.08737e-05
-1.79993e-06
7.04095e-05
-2.05586e-06
6.99758e-05
-2.39328e-06
6.95539e-05
-2.70597e-06
6.91631e-05
-3.01105e-06
6.88012e-05
-3.32384e-06
6.84702e-05
-3.64375e-06
6.81753e-05
-3.9826e-06
6.79221e-05
-4.34606e-06
6.77195e-05
-4.7197e-06
6.75785e-05
-4.82282e-06
6.75092e-05
-4.32688e-06
6.74708e-05
-3.8976e-06
6.73639e-05
-3.55569e-06
6.72116e-05
-1.9352e-06
-3.21576e-06
8.3482e-05
-4.65578e-06
8.3738e-05
-5.42952e-06
8.42185e-05
-4.53899e-06
8.47828e-05
-3.75751e-06
8.5094e-05
-3.14529e-06
8.52148e-05
-2.67971e-06
8.52066e-05
-2.33026e-06
8.5112e-05
-2.06717e-06
8.49587e-05
-1.86293e-06
8.47655e-05
-1.69548e-06
8.45437e-05
-1.54266e-06
8.43005e-05
-1.40125e-06
8.40391e-05
-1.25336e-06
8.37627e-05
-1.10097e-06
8.34715e-05
-9.38005e-07
8.31662e-05
-7.66648e-07
8.2846e-05
-5.90509e-07
8.25095e-05
-4.12675e-07
8.21559e-05
-2.44755e-07
8.17831e-05
-9.00884e-08
8.13886e-05
4.56778e-08
8.09725e-05
1.54998e-07
8.05351e-05
2.34969e-07
8.00764e-05
2.7467e-07
7.9596e-05
2.79576e-07
7.90955e-05
2.43603e-07
7.85748e-05
8.78994e-08
7.80342e-05
-4.08205e-08
7.74906e-05
-2.00553e-07
7.69331e-05
-4.54423e-07
7.63623e-05
-7.4073e-07
7.57913e-05
-9.81955e-07
7.52224e-05
-1.36702e-06
7.46473e-05
-1.63412e-06
7.40924e-05
-2.00192e-06
7.35387e-05
-2.34294e-06
7.30067e-05
-2.67856e-06
7.24946e-05
-3.02759e-06
7.2005e-05
-3.38962e-06
7.15445e-05
-3.77953e-06
7.11198e-05
-4.20536e-06
7.07412e-05
-4.65142e-06
7.04223e-05
-4.78611e-06
7.01767e-05
-4.22235e-06
6.99663e-05
-3.74806e-06
6.96932e-05
-3.38246e-06
6.93848e-05
-2.00063e-06
-3.46714e-06
8.71759e-05
-5.12975e-06
8.73233e-05
-5.98749e-06
8.76638e-05
-4.84412e-06
8.80638e-05
-3.87268e-06
8.82009e-05
-3.1324e-06
8.81588e-05
-2.58153e-06
8.80071e-05
-2.17503e-06
8.77878e-05
-1.87348e-06
8.75261e-05
-1.64228e-06
8.72376e-05
-1.45469e-06
8.69314e-05
-1.28452e-06
8.66129e-05
-1.12859e-06
8.6284e-05
-9.65855e-07
8.59477e-05
-7.98861e-07
8.56041e-05
-6.20175e-07
8.52541e-05
-4.31788e-07
8.48969e-05
-2.37692e-07
8.45316e-05
-4.01192e-08
8.41551e-05
1.495e-07
8.37667e-05
3.25702e-07
8.33656e-05
4.82348e-07
8.29495e-05
6.12652e-07
8.25162e-05
7.14038e-07
8.20643e-05
7.74053e-07
8.15923e-05
7.9975e-07
8.10999e-05
7.84226e-07
8.05854e-05
6.32175e-07
8.00472e-05
5.17437e-07
7.94994e-05
3.70589e-07
7.89295e-05
1.1633e-07
7.83372e-05
-1.72685e-07
7.77348e-05
-4.07567e-07
7.71246e-05
-8.1242e-07
7.64975e-05
-1.0799e-06
7.58798e-05
-1.46889e-06
7.52517e-05
-1.82959e-06
7.46343e-05
-2.18805e-06
7.40257e-05
-2.56663e-06
7.34293e-05
-2.965e-06
7.28525e-05
-3.40151e-06
7.23026e-05
-3.88746e-06
7.1791e-05
-4.40713e-06
7.13332e-05
-4.57732e-06
7.09462e-05
-3.95112e-06
7.05968e-05
-3.44167e-06
7.01925e-05
-3.06366e-06
6.9765e-05
-1.99298e-06
-3.60923e-06
8.72025e-05
-5.46277e-06
8.72325e-05
-6.38029e-06
8.74089e-05
-4.97427e-06
8.76158e-05
-3.8241e-06
8.75681e-05
-2.97533e-06
8.73716e-05
-2.35827e-06
8.70983e-05
-1.91105e-06
8.6784e-05
-1.58458e-06
8.64478e-05
-1.33752e-06
8.61006e-05
-1.13902e-06
8.57479e-05
-9.59606e-07
8.53925e-05
-7.96746e-07
8.50352e-05
-6.26601e-07
8.46782e-05
-4.52505e-07
8.43217e-05
-2.65813e-07
8.39666e-05
-6.81676e-08
8.36114e-05
1.37998e-07
8.32561e-05
3.48001e-07
8.29005e-05
5.50491e-07
8.25416e-05
7.41512e-07
8.21772e-05
9.14953e-07
8.18044e-05
1.06332e-06
8.14203e-05
1.18468e-06
8.10224e-05
1.26513e-06
8.06079e-05
1.31354e-06
8.0175e-05
1.32249e-06
7.97202e-05
1.18058e-06
7.92396e-05
1.08803e-06
7.87446e-05
9.63115e-07
7.82222e-05
7.18211e-07
7.7671e-05
4.368e-07
7.71004e-05
2.19284e-07
7.65121e-05
-1.94187e-07
7.58974e-05
-4.5067e-07
7.52816e-05
-8.50284e-07
7.46447e-05
-1.22036e-06
7.40069e-05
-1.59198e-06
7.3366e-05
-1.99089e-06
7.2726e-05
-2.41663e-06
7.20946e-05
-2.8914e-06
7.14792e-05
-3.43084e-06
7.08913e-05
-4.02096e-06
7.03474e-05
-4.22855e-06
6.98674e-05
-3.54746e-06
6.94248e-05
-3.01479e-06
6.89368e-05
-2.63654e-06
6.84387e-05
-1.9169e-06
-3.6332e-06
8.38734e-05
-5.63092e-06
8.37919e-05
-6.57905e-06
8.37996e-05
-4.91875e-06
8.38065e-05
-3.62031e-06
8.35862e-05
-2.69603e-06
8.32643e-05
-2.03953e-06
8.29068e-05
-1.57235e-06
8.25376e-05
-1.23707e-06
8.21676e-05
-9.86536e-07
8.18022e-05
-7.87007e-07
8.14424e-05
-6.06863e-07
8.10884e-05
-4.44893e-07
8.07399e-05
-2.75028e-07
8.03985e-05
-1.01594e-07
8.00634e-05
8.63088e-08
7.97358e-05
2.85192e-07
7.94175e-05
4.92685e-07
7.91077e-05
7.0674e-07
7.88051e-05
9.14906e-07
7.85069e-05
1.11412e-06
7.8211e-05
1.29838e-06
7.79139e-05
1.45993e-06
7.76121e-05
1.59768e-06
7.73023e-05
1.69662e-06
7.69805e-05
1.76759e-06
7.66439e-05
1.80312e-06
7.62878e-05
1.67619e-06
7.59064e-05
1.61102e-06
7.55075e-05
1.51441e-06
7.50787e-05
1.2884e-06
7.46177e-05
1.02468e-06
7.41309e-05
8.34367e-07
7.36188e-05
4.23019e-07
7.30735e-05
1.87884e-07
7.25177e-05
-2.11871e-07
7.19326e-05
-5.80484e-07
7.13357e-05
-9.54476e-07
7.0724e-05
-1.36267e-06
7.01021e-05
-1.80422e-06
6.94775e-05
-2.30548e-06
6.8857e-05
-2.88758e-06
6.82516e-05
-3.54045e-06
6.76774e-05
-3.78483e-06
6.71562e-05
-3.05815e-06
6.66696e-05
-2.51545e-06
6.61481e-05
-2.14865e-06
6.56297e-05
-1.78555e-06
-3.54504e-06
7.7904e-05
-5.62957e-06
7.77303e-05
-6.57711e-06
7.75832e-05
-4.68978e-06
7.74046e-05
-3.29047e-06
7.70433e-05
-2.33189e-06
7.66388e-05
-1.66542e-06
7.62404e-05
-1.19977e-06
7.58573e-05
-8.71361e-07
7.54922e-05
-6.28728e-07
7.51442e-05
-4.36956e-07
7.48104e-05
-2.63588e-07
7.44887e-05
-1.09244e-07
7.41771e-05
5.45823e-08
7.38764e-05
2.21265e-07
7.35886e-05
4.01103e-07
7.33152e-05
5.9282e-07
7.30562e-05
7.94426e-07
7.28116e-05
1.00481e-06
7.25804e-05
1.21105e-06
7.23606e-05
1.41112e-06
7.21496e-05
1.59949e-06
7.1944e-05
1.7685e-06
7.174e-05
1.91787e-06
7.15339e-05
2.03175e-06
7.13212e-05
2.12292e-06
7.10985e-05
2.18455e-06
7.08605e-05
2.07561e-06
7.06002e-05
2.04027e-06
7.03213e-05
1.97542e-06
7.00131e-05
1.77498e-06
6.96725e-05
1.53686e-06
6.93026e-05
1.38086e-06
6.89028e-05
9.80949e-07
6.84669e-05
7.74487e-07
6.80124e-05
3.84246e-07
6.75235e-05
2.77234e-08
6.7015e-05
-3.37843e-07
6.6482e-05
-7.43498e-07
6.59282e-05
-1.18787e-06
6.53609e-05
-1.70168e-06
6.47866e-05
-2.31245e-06
6.42143e-05
-3.01646e-06
6.3659e-05
-3.29459e-06
6.31428e-05
-2.533e-06
6.26561e-05
-1.99379e-06
6.21459e-05
-1.64828e-06
6.16512e-05
-1.61798e-06
-3.36424e-06
7.0192e-05
-5.4728e-06
6.99549e-05
-6.38907e-06
6.96811e-05
-4.31926e-06
6.93478e-05
-2.87744e-06
6.88899e-05
-1.92651e-06
6.84493e-05
-1.27719e-06
6.80503e-05
-8.31915e-07
6.76877e-05
-5.2318e-07
6.73571e-05
-2.97103e-07
6.70522e-05
-1.19546e-07
6.67662e-05
4.24148e-08
6.64947e-05
1.85257e-07
6.62379e-05
3.36391e-07
6.59966e-05
4.89571e-07
6.5771e-05
6.56359e-07
6.55625e-05
8.35295e-07
6.53718e-05
1.02477e-06
6.51994e-05
1.22471e-06
6.50448e-05
1.42237e-06
6.49065e-05
1.61675e-06
6.47822e-05
1.80293e-06
6.46686e-05
1.97347e-06
6.45621e-05
2.12895e-06
6.44589e-05
2.25298e-06
6.43547e-05
2.36009e-06
6.42458e-05
2.44484e-06
6.41269e-05
2.35501e-06
6.39906e-05
2.34884e-06
6.3836e-05
2.31585e-06
6.36554e-05
2.14496e-06
6.34454e-05
1.93742e-06
6.32051e-05
1.81871e-06
6.29335e-05
1.43784e-06
6.26265e-05
1.26392e-06
6.22948e-05
8.89612e-07
6.19274e-05
5.54063e-07
6.15335e-05
2.07877e-07
6.11082e-05
-1.83303e-07
6.06554e-05
-6.17638e-07
6.018e-05
-1.12967e-06
5.96872e-05
-1.75375e-06
5.9185e-05
-2.49451e-06
5.86854e-05
-2.80131e-06
5.82093e-05
-2.01667e-06
5.77557e-05
-1.49375e-06
5.72912e-05
-1.17617e-06
5.6853e-05
-1.43575e-06
-3.11965e-06
6.16184e-05
-5.1891e-06
6.13498e-05
-6.04597e-06
6.09858e-05
-3.8519e-06
6.05383e-05
-2.42807e-06
6.00329e-05
-1.52024e-06
5.95977e-05
-9.09357e-07
5.92285e-05
-4.98544e-07
5.89099e-05
-2.18136e-07
5.86318e-05
-1.35417e-08
5.83827e-05
1.47404e-07
5.81548e-05
2.93451e-07
5.79449e-05
4.20044e-07
5.7751e-05
5.55764e-07
5.75733e-05
6.92832e-07
5.74122e-05
8.4327e-07
5.72693e-05
1.00549e-06
5.71458e-05
1.17848e-06
5.70424e-05
1.36313e-06
5.69593e-05
1.54718e-06
5.68955e-05
1.73056e-06
5.6849e-05
1.90902e-06
5.68172e-05
2.07556e-06
5.67967e-05
2.23156e-06
5.67842e-05
2.36048e-06
5.67756e-05
2.47815e-06
5.67673e-05
2.5811e-06
5.67546e-05
2.50999e-06
5.67305e-05
2.52969e-06
5.66894e-05
2.52571e-06
5.66275e-05
2.38561e-06
5.65413e-05
2.21054e-06
5.6426e-05
2.12813e-06
5.62805e-05
1.77148e-06
5.61037e-05
1.63026e-06
5.58981e-05
1.27726e-06
5.56586e-05
9.69228e-07
5.5388e-05
6.50217e-07
5.5081e-05
2.84509e-07
5.47418e-05
-1.27725e-07
5.43748e-05
-6.25158e-07
5.39827e-05
-1.24767e-06
5.35712e-05
-2.00947e-06
5.31498e-05
-2.33829e-06
5.27359e-05
-1.54341e-06
5.23366e-05
-1.04778e-06
5.19396e-05
-7.60642e-07
5.15773e-05
-1.25944e-06
-2.84347e-06
5.29171e-05
-4.81521e-06
5.26464e-05
-5.58873e-06
5.22302e-05
-3.33691e-06
5.17122e-05
-1.98412e-06
5.12044e-05
-1.14381e-06
5.08048e-05
-5.85618e-07
5.0484e-05
-2.17762e-07
5.02216e-05
3.10054e-08
5.00029e-05
2.12079e-07
4.98142e-05
3.52911e-07
4.96473e-05
4.81495e-07
4.94982e-05
5.91319e-07
4.93647e-05
7.10665e-07
4.92468e-05
8.30485e-07