/*--------------------------------*- C++ -*----------------------------------*\
| =========                 |                                                 |
| \\      /  F ield         | OpenFOAM: The Open Source CFD Toolbox           |
|  \\    /   O peration     | Version:  2212                                  |
|   \\  /    A nd           | Website:  www.openfoam.com                      |
|    \\/     M anipulation  |                                                 |
\*---------------------------------------------------------------------------*/
FoamFile
{
    version     2.0;
    format      ascii;
    arch        "LSB;label=32;scalar=64";
    class       volScalarField;
    location    "10000";
    object      Q_3D;
}
// * * * * * * * * * * * * * * * * * * * * * * * * * * * * * * * * * * * * * //

dimensions      [0 0 0 0 0 0 0];

internalField   nonuniform List<scalar> 
18080
(
0.0147233
0.439957
1.67171
4.35125
9.27252
17.5841
30.7811
50.7337
79.8128
121.382
182.273
271.713
403.712
599.413
890.241
1321.84
1958.33
2885.97
4214.34
6072.66
8598.44
11916.4
16109.7
21189.6
27075.9
33605.7
40570
47793.7
55239.9
62858.6
70582.9
78170.9
84894.7
89550.2
90925.4
87915.4
80376.9
69072.6
55609.6
41906.2
29606.7
19697.6
12436.1
7533.83
4442.15
2595.97
1525.36
914.711
0.0320968
0.46936
1.79289
4.72587
10.1793
19.5133
34.5763
57.7858
92.2886
142.175
214.713
321.092
476.777
704.261
1036.02
1518.6
2217.92
3225.94
4668.43
6713.12
9576.72
13527.1
18877
25961.2
35092
46485.8
60157.8
75817.1
92756.4
109755
125211
137300
144229
144716
138320
125566
108020
87864.9
67491
48951.5
33585.5
21894.6
13669.2
8269.61
4923.35
2940.2
1787.32
1125.75
0.0287393
0.440778
1.71702
4.56651
9.89747
19.0839
34.0193
57.2046
91.9068
142.355
215.906
323.891
481.776
711.754
1045.37
1527.07
2218.45
3203.55
4594.35
6536
9210.22
12834.2
17651.9
23913.6
31839.8
41566.5
53069.6
66096.9
80095.9
94130
106978
117232
123455
124529
119947
109923
95572
78603.8
61033.1
44707.2
30928.7
20282.5
12696.3
7667.61
4531.15
2668.03
1588.22
977.135
0.0324074
0.448113
1.7206
4.55394
9.85272
18.9842
33.8295
56.8686
91.3383
141.425
214.354
321.355
477.74
705.524
1036.1
1513.87
2200.72
3181.59
4570.59
6517.07
9210.1
12878.7
17784.8
24202.9
32383.4
42495.2
54542.7
68288.1
83164.8
98187.5
112043
123197
130072
131431
126698
116102
100846
82787.6
64104.2
46780.7
32203.8
20983
13024.2
7778.47
4530.68
2619.74
1525.32
918.003
0.0350967
0.445684
1.70472
4.51137
9.76404
18.8208
33.5539
56.4339
90.6886
140.502
213.041
319.522
475.215
702.065
1031.35
1507.26
2191.33
3167.82
4549.7
6484.33
9157.56
12793.4
17646
23979.7
32031.8
41956
53743.2
67146.9
81602.7
96144.9
109499
120185
126690
127836
123084
112667
97760.6
80163.8
61987.7
45154.8
31007.1
20132.5
12434.7
7375.37
4255.28
2429.25
1390.71
821.527
0.0414075
0.454267
1.71112
4.50656
9.73361
18.7437
33.4013
56.1704
90.2635
139.853
212.043
318.01
472.944
698.679
1026.34
1499.88
2180.55
3152.25
4527.51
6453.26
9115.01
12736.7
17573.4
23890.9
31930
41849.9
53648.7
67088.8
81613.5
96262.8
109762
120619
127302
128604
123959
113577
98625.4
80912.5
62574
45563.7
31253.1
20249.2
12462.7
7351.69
4208
2376.02
1339.97
778.153
0.0514369
0.468244
1.72409
4.50866
9.70943
18.6709
33.2483
55.8951
89.8175
139.162
210.973
316.387
470.522
695.107
1021.12
1492.3
2169.61
3136.53
4505.02
6421.25
9069.71
12673.1
17485
23769.6
31766.1
41632.6
53366.9
66732.9
81176.3
95742.8
109166
119960
126600
127886
123249
112898
97995.9
80341.9
62067.7
45123.4
30878.6
19939
12213.1
7156.93
4060.22
2266.08
1258.64
718.709
0.0672832
0.492407
1.75335
4.53339
9.7139
18.6323
33.1335
55.658
89.3989
138.486
209.883
314.682
467.911
691.172
1015.26
1483.67
2157
3118.26
4478.79
6383.97
9017.42
12601
17387.2
23640.5
31600.5
41427.3
53122.9
66456.8
80881.5
95450.6
108904
119757
126479
127860
123315
113035
98169.8
80513.3
62202.6
45201.3
30896.1
19907
12150.1
7081.5
3986.65
2202.17
1206.3
678.192
0.0918982
0.53058
1.80346
4.58419
9.74756
18.6233
33.0444
55.4348
88.9664
137.752
208.657
312.715
464.846
686.496
1008.24
1473.29
2141.82
3096.31
4447.4
6339.65
8955.73
12516.5
17274
23492.2
31411.9
41195.4
52848.7
66147.3
80550.2
95118.4
108598
119506
126306
127778
123323
113112
98282.9
80623.1
62275.3
45217.3
30853.7
19820
12039.9
6968.93
3886.22
2120.38
1143.16
631.738
0.129586
0.588868
1.88329
4.67211
9.82298
18.6576
32.9941
55.2359
88.5268
136.947
207.267
310.421
461.2
680.857
999.705
1460.59
2123.19
3069.39
4409.03
6285.76
8881.31
12415.7
17140.6
23320.5
31197.9
40939
52555.7
65831.8
80234.8
94834.7
108385
119400
126336
127957
123638
113527
98738.8
81054.2
62625
45451.4
30967.7
19834.6
11989.5
6888.31
3802.04
2047.18
1085.38
589.237
0.185518
0.674245
2.00262
4.80868
9.95189
18.7456
32.9893
55.0595
88.063
136.032
205.622
307.642
456.714
673.852
989.038
1444.67
2099.88
3035.79
4361.39
6219.36
8790.49
12294.2
16982
23119.7
30952.8
40652.6
52239
65505.8
79930.9
94594.5
108257
119430
126554
128374
124230
114237
99486.7
81748.7
63189.3
45841.1
31178.9
19898.3
11955.3
6806.2
3709.88
1965.83
1021.83
543.389
0.26595
0.794513
2.17212
5.00665
10.1477
18.8998
33.0393
54.9074
87.562
134.97
203.635
304.238
451.154
665.109
975.678
1424.73
2070.7
2993.89
4302.32
6137.66
8679.82
12147.8
16793.7
22885.3
30672.7
40334.3
51900.3
65177.3
79655.6
94427.3
108260
119659
127046
129134
125221
115378
100663
82835.5
64080.9
46476.7
31553.6
20055.6
11964.8
6738.29
3618.45
1881.35
955.651
496.154
0.375963
0.955925
2.40011
5.27616
10.4215
19.1319
33.1541
54.7834
87.0139
133.729
201.234
300.061
444.276
654.248
959.059
1399.94
2034.53
2942.17
4229.83
6038.13
8546.26
11973.1
16572
22614.1
30355.5
39984.4
51544.3
64857.6
79430.1
94367.5
108445
120155
127893
130332
126713
117052
102365
84398.4
65366.6
47405.7
32120.9
20320.4
12021.6
6682.9
3524.46
1790.75
884.744
446.142
0.518144
1.15997
2.6895
5.62182
10.7806
19.4531
33.3483
54.7026
86.4279
132.302
198.389
295.021
435.951
641.054
938.849
1369.82
1990.69
2879.72
4142.75
5919.39
8388.23
11768.5
16315.7
22305.7
30002.8
39607.6
51179.7
64560.8
79274.8
94444.1
108852
120978
129178
132074
128834
119399
104734
86572.3
67163.1
48720.6
32947
20735
12149.4
6651.89
3433.56
1697.06
811.104
394.759
0.688562
1.39847
3.02757
6.02836
11.2094
19.8495
33.6099
54.6514
85.7822
130.65
195.036
289.023
426.001
625.274
914.7
1333.91
1938.57
2805.77
4040.14
5780.29
8204.45
11532.7
16023.4
21959.2
29615.1
39208.1
50818.7
64312
79231.4
94715.5
109554
122203
130979
134443
131671
122517
107876
89461
69565.9
50500.9
34090.6
21337.1
12369.1
6655.06
3350.03
1602.5
736.346
343.281
0.875189
1.65215
3.38759
6.46708
11.6845
20.3109
33.9476
54.6603
85.1318
128.856
191.298
282.258
414.689
607.346
887.252
1293.12
1879.5
2722.22
3924.66
5624.51
7999.96
11272.6
15705.2
21587.5
29206.7
38798.1
50467.6
64110.5
79303.2
95211.8
110627
123966
133479
137649
135447
126624
111995
93250.8
72734.9
52874.6
35645.4
22187.7
12715.4
6709.87
3282.33
1511.92
663.831
294.274
1.058
1.89279
3.73208
6.89947
12.1775
20.8299
34.3828
54.784
84.5689
127.061
187.389
275.043
402.497
587.907
857.424
1248.77
1815.3
2631.53
3799.64
5456.58
7780.37
10993.5
15363.6
21193.5
28787.5
38403
50173.4
64021
79528.1
95895.7
111954
126103
136523
141584
140108
131714
117120
97991.8
76733.2
55907.5
37669.5
23330.2
13215
6830.36
3237.52
1429.62
596.787
250.162
1.20812
2.07948
4.0042
7.26054
12.6249
21.3503
34.8651
54.9709
84.0356
125.2
183.24
267.316
389.389
566.955
825.29
1201
1746.15
2533.94
3665.06
5274.81
7543.07
10696.7
15008
20786.1
28355.7
38002.2
49893.7
63995.6
79943.6
96947.5
113801
128832
140201
146244
145626
137781
123283
103743
81635
59679.1
40236.7
24822.7
13907
7038.62
3227.17
1362.35
539.683
214.028
1.29984
2.17594
4.15506
7.49853
12.9841
21.8444
35.3787
55.2113
83.5307
123.295
178.922
259.232
375.649
544.969
791.558
1150.85
1673.52
2430.94
3523.06
5085.18
7293.93
10378.9
14621.1
20341.2
27879.6
37549.1
49552.9
63894.3
80273.5
97951.3
115744
131946
144540
151720
152019
144814
130501
110574
87551.8
64321
43476.7
26774.7
14869
7380.82
3274.64
1321.4
498.247
188.781
1.31392
2.16003
4.15685
7.5902
13.248
22.3229
35.9432
55.5278
83.0902
121.419
174.585
251.068
361.758
522.729
757.407
1099.92
1599.64
2326.83
3378.38
4889.19
7037.75
10053.1
14221.8
19882.5
27398.1
37111.6
49264
63893.7
80713.8
99042.8
117766
135164
149153
157786
159322
152896
138790
118482
94498
69872.1
47440.2
29232.2
16131
7867.43
3377.76
1301.27
468.332
171.979
1.25257
2.03531
4.0144
7.55025
13.4481
22.8271
36.594
55.9449
82.7434
119.635
170.364
243.081
348.158
500.909
723.819
1050.05
1527.04
2223.34
3235.43
4695.19
6782.79
9732.25
13836.3
19443.1
26936.4
36691.3
48992
63921.4
81237.6
100329
120079
138651
153973
164083
167039
161714
148054
127331
102318
76214.2
52064.6
32174
17688.3
8491.43
3523.28
1289.19
442.072
159.252
1.12589
1.82308
3.75691
7.42224
13.6395
23.4088
37.3613
56.4719
82.5014
117.982
166.362
235.472
335.181
480.186
691.933
1002.2
1457.63
2124.71
3098.61
4511.46
6541.55
9423.43
13455.1
18996.7
26453.3
36232.4
48662.2
63865.7
81628.8
101437
122246
142127
158882
170522
174877
170746
157720
136876
110874
83211.4
57256.8
35556.5
19524.6
9238.56
3691.9
1268.46
410.879
146.737
0.960385
1.55999
3.43159
7.26804
13.8816
24.1068
38.2527
57.0959
82.355
116.478
162.662
228.455
323.217
460.827
662.244
958.106
1393.49
2034.05
2972.79
4339.61
6312.21
9126.86
13086.9
18563.1
25982.7
35785.9
48336.5
63802.2
81983.7
102491
124314
145426
163636
176996
182876
180025
167725
146730
119800
90663.9
62854.3
39277.8
21588.9
10078.2
3856.98
1219.94
367.633
132.275
0.784729
1.28456
3.0896
7.15214
14.2123
24.9275
39.2436
57.7775
82.2695
115.101
159.377
222.036
312.281
443.487
635.671
918.767
1336.49
1952.46
2858.07
4182.01
6101.19
8852.71
12746.6
18161.7
25535.6
35337.8
47988.8
63688
82228.2
103375
126183
148481
168095
183216
190687
189381
177897
156663
128815
98226
68682.5
43228.3
23828.3
10985.6
4000.41
1131.83
311.587
117.302
0.615034
1.02196
2.7666
7.11777
14.6199
25.8332
40.2819
58.4691
82.2027
113.843
156.274
216.231
302.503
428.119
612.396
884.011
1285.47
1879.09
2754.85
4040.43
5911.73
8606.23
12434.9
17781.7
25106
34899.1
47628.9
63532.7
82369.9
104100
127850
151281
172283
189298
198435
198837
188317
166968
138080
105955
74657.6
47357.2
26218.3
11953.5
4118.26
1001.58
247.654
105.556
0.472636
0.796434
2.50043
7.21038
15.075
26.7931
41.3346
59.144
82.2039
112.699
153.506
211.097
294.046
414.738
591.888
853.337
1240.61
1814.73
2664.06
3914.45
5740.18
8378.27
12139.5
17417.6
24682.6
34446.5
47224.9
63296.8
82364.1
104616
129257
153748
176068
195007
205726
207872
198267
176678
146820
113277
80298.2
51420.7
28651.4
12959
4218.2
837.825
185.467
102.568
0.352379
0.605901
2.29045
7.42022
15.4751
27.7293
42.3228
59.7277
82.067
111.513
150.944
206.434
286.296
402.468
573.156
825.297
1199.29
1754.58
2577.73
3792.6
5569.92
8145.21
11830.2
17020.6
24196.1
33885.9
46652.9
62819.3
81999.1
104627
129977
155305
178725
199507
211674
215601
206925
185135
154437
119736
85458.4
55150.1
30945.8
13891
4253.05
624.904
118.464
99.6338
0.269437
0.461974
2.15351
7.74508
15.7143
28.5182
43.0304
59.9617
81.4014
109.702
147.486
200.398
276.476
387.007
549.346
788.99
1144.51
1672.68
2456.63
3615.29
5315.26
7787.54
11340.2
16367.4
23352.9
32832.9
45407.5
61443.7
80456.7
103140
128851
154669
178882
201331
214785
220524
212866
191097
159959
124574
89524.9
58224.2
32979.1
14753.9
4287.1
408.231
59.2015
83.465
0.200428
0.347364
2.05998
8.1125
15.6374
28.911
43.0005
58.9295
78.997
105.277
140.113
188.246
257.283
357.332
504.248
721.254
1044.02
1525.31
2242.61
3308.48
4880.23
7177.78
10498.2
15227.9
21840.8
30863.8
42915.9
58401.9
76744
98862
124208
149763
174008
197402
211602
218898
212430
191445
161197
126804
92697.3
61948.5
36436.9
16845.7
4827.32
331.905
94.8923
167.06
0.147851
0.259931
2.00441
8.52734
15.3661
29.2313
42.9002
57.889
76.7004
101.232
133.644
177.92
241.461
333.567
469.372
674.126
979.046
1433.03
2107.71
3105.8
4567.22
6685.22
9715.02
13978.7
19870
27810.6
38310.8
51684.4
67212
85866.4
107208
128543
148856
169234
181509
189027
185333
169693
146747
120058
92306.8
65152.4
39573.6
15607.3
2675.81
84.9099
41.2136
35.8062
0.124768
0.206717
2.00533
8.98114
14.9581
29.5454
42.9254
57.3976
75.5148
99.1818
132.208
177.705
242.408
333.633
461.004
634.109
862.447
1152.42
1507.88
1932.3
2429.7
3011.66
3696.33
4507.46
5476.8
6630.5
8018.91
9651.4
11294.7
13189.7
15262.4
17096.2
18722.6
20556.9
21345.4
21904.6
21232.3
19314.6
16745.3
13645
10125.6
6506.82
3245.88
878.398
99.033
0.323369
3.33641
9.12959
0.0946783
0.159631
1.9779
9.11817
13.9202
28.7357
41.5077
55.4287
73.0649
95.6749
122.38
148.557
166.77
171.067
162.985
149.459
136.444
126.875
121.672
120.922
124.379
131.984
143.708
159.587
180.283
206.431
238.78
276.197
310.716
350.797
392.452
422.706
442.055
456.147
433
405.009
346.389
282.74
235.136
212.719
197.544
166.285
109.453
44.6108
10.5497
0.0574848
0.509652
0.29522
0.0714936
0.125861
1.86062
8.08014
11.0558
23.0075
31.8277
40.2497
46.915
47.0892
40.3641
31.7206
24.6279
19.7328
16.5831
14.6427
13.5348
13.0187
12.9487
13.254
13.8837
14.8036
15.9752
17.36
18.9191
20.5911
22.3836
24.0499
25.1585
26.5528
28.095
29.2659
30.6821
32.536
33.8899
34.2777
30.0187
19.4581
7.66585
2.39415
8.64141
18.3864
20.6879
14.8087
8.00759
4.35315
2.79381
1.68299
0.0800232
0.123181
1.50118
4.88936
5.47272
10.8616
13.7434
14.3372
12.5432
10.0534
8.04676
6.71036
5.87735
5.37398
5.0664
4.88152
4.77646
4.73149
4.74688
4.81845
4.92793
5.06857
5.22863
5.39421
5.54941
5.68287
5.79944
5.8316
5.73977
5.61067
5.43507
5.27484
5.30359
5.42067
5.48429
5.17338
5.47422
5.58382
3.624
1.20383
0.456248
0.702806
1.0476
1.35509
1.6555
1.70341
1.59695
1.41886
0.0442816
0.128687
0.962702
2.05959
1.68118
3.8812
5.00318
4.76145
4.01637
3.40824
3.04765
2.87041
2.79981
2.78851
2.80441
2.8351
2.87266
2.91697
2.98113
3.05889
3.1394
3.21593
3.28369
3.33973
3.37972
3.40186
3.40584
3.37293
3.3211
3.22135
2.97265
2.48069
1.94522
1.58444
1.40951
1.31658
1.58629
2.11651
2.99227
3.87476
4.49735
4.54987
3.91438
2.59104
1.05725
0.195581
0.298491
0.0353079
0.110902
0.233877
0.566098
0.843411
0.795174
2.23916
2.29236
1.89717
1.6245
1.52301
1.52858
1.58608
1.66489
1.75276
1.84201
1.93417
2.02857
2.12323
2.21097
2.28744
2.36183
2.42663
2.47789
2.51594
2.54137
2.55592
2.55878
2.53552
2.49962
2.46458
2.46714
2.42139
2.08736
1.37713
1.07219
1.10723
0.935175
0.0170941
2.37071
5.33594
8.249
10.6057
12.3046
12.5853
11.8964
11.3047
9.747
8.22633
0.276899
0.174544
0.255862
0.434512
0.800436
1.14884
0.87206
0.694931
0.689225
0.747893
0.826306
0.91508
1.00835
1.10917
1.22011
1.33603
1.44583
1.54728
1.63705
1.71324
1.77369
1.81934
1.85271
1.87485
1.88625
1.88859
1.88289
1.85899
1.80755
1.70541
1.6133
1.83328
2.1104
2.00542
1.53801
0.974122
0.245084
2.02931
3.92371
5.37107
6.18764
6.48903
6.18552
5.33674
4.45192
3.92947
3.41135
3.14154
0.122048
0.0418828
0.102371
0.252207
0.444304
0.329816
0.234011
0.300497
0.403888
0.490983
0.560977
0.625374
0.688556
0.753573
0.820884
0.893768
0.976225
1.06246
1.14215
1.20874
1.2588
1.29646
1.32458
1.34485
1.35742
1.36355
1.36472
1.35933
1.34411
1.27402
1.04696
0.74498
0.83047
1.64183
1.69665
0.829436
0.110118
0.514624
0.64356
0.715224
0.703676
0.613155
0.443778
0.28377
0.15605
0.0402537
0.0892783
0.166028
0.277406
0.0128629
0.0440578
0.0975463
0.00288817
0.0381247
0.135884
0.234808
0.310315
0.367394
0.416984
0.464861
0.511246
0.555804
0.595634
0.633545
0.67324
0.712794
0.750373
0.785536
0.817644
0.846019
0.870485
0.890933
0.907116
0.918278
0.925393
0.932679
0.947281
0.951721
0.855384
0.401071
0.15235
0.139671
1.24644
1.45519
1.20696
0.980524
0.671707
0.423886
0.293801
0.253603
0.289768
0.400458
0.603498
0.860537
1.07187
1.15726
0.211435
0.00903456
0.0168581
0.0165352
0.136308
0.00664215
0.109057
0.165931
0.213778
0.25715
0.29812
0.337596
0.374867
0.409324
0.439033
0.466903
0.492634
0.515631
0.535846
0.552825
0.565382
0.575497
0.582312
0.586926
0.58975
0.590514
0.589751
0.589778
0.597443
0.620414
0.653009
0.540069
0.0498786
0.520045
0.476198
1.77641
2.04385
1.61519
1.1169
0.762158
0.587583
0.563214
0.671963
0.853653
1.08036
1.24759
1.26148
1.21579
0.133309
0.0165618
0.00718451
0.0365735
0.117189
0.0389994
0.0206969
0.0677641
0.0991008
0.129644
0.16043
0.191223
0.221426
0.250469
0.277064
0.308947
0.339389
0.366971
0.390893
0.410258
0.42389
0.432798
0.439142
0.442428
0.443148
0.440095
0.433304
0.424499
0.416498
0.421887
0.46779
0.538286
0.430078
0.148757
0.240267
0.915562
1.80423
1.71145
1.41519
1.17302
1.04731
1.02806
1.03652
1.03517
0.881012
0.569966
0.184365
0.0626233
0.0970147
0.0142509
0.00356063
0.00456337
0.0318552
0.0547668
0.0671862
0.0665859
0.0598633
0.0477393
0.0310104
0.00953422
0.0173303
0.0504504
0.0888327
0.117263
0.148309
0.181534
0.215445
0.248002
0.276389
0.299017
0.324406
0.345986
0.361608
0.370405
0.372593
0.368519
0.356984
0.343381
0.352524
0.433656
0.536104
0.332587
0.366034
0.516633
0.0373072
0.512142
0.752657
0.771669
0.622569
0.350584
0.151451
0.58322
0.973476
1.21573
1.25546
1.16299
0.0468501
0.0088698
0.00159436
0.0125014
0.0361022
0.0283057
0.0109602
0.00652525
0.0147125
0.0214491
0.0283205
0.0358353
0.0439775
0.0523067
0.0600697
0.0676785
0.0713259
0.0680731
0.0550191
0.0297191
0.00904739
0.0613168
0.105484
0.150555
0.196656
0.239787
0.276293
0.303481
0.317561
0.316081
0.313445
0.34483
0.463245
0.56044
0.104457
0.66751
1.08232
1.22766
1.20581
1.22489
1.39946
1.58817
1.75339
1.80879
1.63867
1.35405
1.00838
0.834409
0.0176919
0.00327693
0.000432996
0.00376839
0.0127002
0.0212764
0.0283759
0.0343399
0.0385343
0.0414853
0.0429211
0.0422409
0.0385193
0.0306232
0.017869
0.00798232
0.00633562
0.0255737
0.049382
0.0766494
0.105285
0.132164
0.157046
0.174322
0.179267
0.168333
0.139362
0.091496
0.0275996
0.0449656
0.0989025
0.141239
0.230736
0.428653
0.486722
0.0231701
0.4903
0.839047
1.07906
1.19208
1.19084
1.10735
0.907024
0.69924
0.405742
0.133351
0.0660278
0.119948
0.00410214
0.000546698
4.16681e-05
8.52478e-05
0.000101918
0.000615232
0.00171411
0.0033134
0.00506291
0.00723951
0.0099966
0.0134967
0.0179062
0.0233616
0.0297923
0.0362761
0.0426631
0.0478212
0.0500735
0.0471932
0.0367166
0.0162376
0.00518725
0.0330648
0.068561
0.110126
0.155233
0.200411
0.241795
0.276817
0.311335
0.349511
0.378174
0.315135
0.129768
0.134686
0.340758
0.536739
0.690015
0.718614
0.60024
0.445905
0.258745
0.124393
0.0352616
0.0418996
0.0981926
0.1407
0.000211213
3.47254e-05
1.34218e-06
3.10573e-06
2.33029e-05
5.34971e-05
8.21786e-05
0.00010416
0.000107423
8.91078e-05
3.67982e-05
7.24667e-05
0.000278154
0.000644601
0.00126352
0.00210422
0.00343139
0.0054919
0.00859847
0.0131083
0.0193416
0.0275191
0.0369131
0.047068
0.0567428
0.0638528
0.0657772
0.059637
0.0431614
0.0151694
0.0160676
0.0547769
0.108725
0.166659
0.145322
0.0672431
0.0601912
0.120333
0.196462
0.230931
0.205948
0.169572
0.130485
0.132976
0.187492
0.237459
0.269876
0.273615
1.24354e-05
4.86597e-07
6.64928e-08
6.83341e-08
7.56344e-08
3.80673e-07
8.2975e-07
1.38147e-06
1.9799e-06
2.69995e-06
3.59989e-06
4.76644e-06
6.31038e-06
8.2982e-06
1.05295e-05
1.05748e-05
7.09945e-06
5.11339e-06
3.61497e-05
0.000105436
0.000247124
0.000518751
0.000940822
0.0016346
0.00276037
0.00451602
0.007136
0.010897
0.0159825
0.0224734
0.03009
0.0381497
0.045018
0.0478915
0.0516935
0.07073
0.0932289
0.1099
0.118952
0.11786
0.106326
0.0911588
0.0726807
0.0540117
0.032836
0.00890278
0.0109647
0.0423104
1.24596e-07
4.21304e-10
5.86512e-10
6.03644e-10
5.47733e-10
1.17114e-10
1.66807e-09
4.3273e-09
8.63351e-09
1.53719e-08
2.57519e-08
4.16698e-08
6.62333e-08
1.04459e-07
1.64243e-07
2.56467e-07
4.02943e-07
6.39466e-07
1.02336e-06
1.64828e-06
2.65917e-06
4.28122e-06
6.6855e-06
1.02779e-05
1.55483e-05
2.29843e-05
3.29761e-05
4.57798e-05
6.05775e-05
7.54678e-05
9.07045e-05
0.000102031
0.000103051
0.000104345
0.000132671
0.000101185
0.000203453
0.00079782
0.00160736
0.00237788
0.0028595
0.0031642
0.00312406
0.002677
0.0021489
0.00201213
0.00232313
0.00322713
3.83484e-06
2.9679e-07
2.38107e-08
1.8174e-08
1.78793e-08
1.82512e-08
1.94051e-08
2.21303e-08
2.72734e-08
3.56443e-08
5.71116e-08
1.36449e-07
8.15679e-07
5.69892e-06
2.73318e-07
1.52457e-08
2.08643e-08
1.35397e-08
1.41213e-08
1.56461e-07
5.51972e-07
1.60227e-06
4.34666e-06
1.12862e-05
2.78753e-05
6.59638e-05
0.000161436
0.000477757
0.00209389
0.0104791
0.000196674
1.91082e-05
8.19125e-06
1.10201e-06
1.44464e-07
5.48855e-07
7.48562e-07
8.6821e-07
8.58558e-07
7.02153e-07
5.27261e-07
8.15168e-06
4.21304e-05
4.30199e-05
6.01975e-05
9.91662e-07
1.0992e-07
2.48104e-06
4.31922e-06
6.2598e-06
8.90787e-06
1.14568e-05
1.80144e-06
9.494e-05
0.000525336
0.00181481
0.00466031
0.0118702
0.0200796
0.204401
0.000256883
1.12084e-05
0.000164976
3.74297e-05
2.24392e-05
2.01462e-05
2.0042e-05
2.05855e-05
2.11139e-05
1.16009e-05
2.25196e-05
0.000276592
6.09206e-07
0.000164498
0.00478372
5.40585e-05
7.05909e-06
6.97025e-05
0.000399691
0.0013217
0.00345621
0.00800696
0.0168476
0.0344056
0.0598385
0.0965058
0.149889
0.221756
0.436535
0.0259899
0.00359774
0.000319442
0.000771188
0.00015959
5.97247e-05
3.02723e-06
9.52101e-05
0.000250854
0.000505467
0.000970949
0.00178886
0.00420456
0.000852959
0.00628327
0.04287
0.00218271
0.000419136
0.00394115
0.0114284
0.0257445
0.0498507
0.0879763
0.143473
0.226567
0.332234
0.466375
0.636617
0.830407
1.38807
0.212645
0.00927098
0.000720516
0.00299941
0.000998128
0.000494274
0.000152161
0.00024947
0.000753459
0.00128202
0.00176659
0.00138151
0.00275706
0.0139071
0.0135303
0.14011
0.0304295
0.0313919
0.045973
0.0734324
0.121961
0.191974
0.289007
0.419695
0.599715
0.831804
1.11057
1.43528
1.73761
2.73025
1.02055
0.0185454
0.00191684
0.00732838
0.00299022
0.00204962
0.00158223
0.00121521
0.00105434
0.00152027
0.00270821
0.00624427
0.0072528
0.0365718
0.0299899
0.295103
0.0935853
0.0745013
0.124681
0.172881
0.256965
0.391096
0.57984
0.838033
1.17056
1.55452
1.97314
2.41412
2.67965
4.70628
5.44455
0.0338297
0.00484373
0.0136737
0.00576233
0.00419165
0.00368956
0.00348959
0.00371691
0.00509605
0.00679258
0.00943873
0.00248443
0.0291251
0.0803096
0.508717
0.206353
0.0497938
0.194412
0.315871
0.485429
0.71342
1.02143
1.3979
1.83214
2.28938
2.74134
3.17426
3.39122
8.08285
16.9473
0.0559411
0.0101842
0.0238232
0.0101186
0.00680639
0.00554534
0.00468989
0.00417935
0.00493871
0.00511856
0.00544218
0.0295763
0.00598074
0.163336
0.778274
0.408423
0.266098
0.407168
0.553979
0.813018
1.11906
1.49327
1.91256
2.35568
2.80253
3.23745
3.69425
4.35022
12.3661
33.4855
0.0828304
0.0186814
0.0419738
0.0178629
0.0101826
0.00626504
0.00272333
0.000851822
0.00405679
0.0102853
0.0202434
0.0966754
0.0422715
0.306661
1.12895
0.685078
0.603162
0.770166
0.900232
1.13802
1.49757
1.88666
2.31509
2.74831
3.17519
3.62364
4.26629
5.80127
15.5579
46.5212
0.105638
0.0289994
0.0644254
0.0301583
0.0167088
0.0076641
0.00201493
0.0126508
0.0243721
0.0424894
0.0691353
0.199971
0.109567
0.471452
1.59318
1.08471
1.02006
1.17983
1.32295
1.5368
1.87311
2.28049
2.70249
3.12323
3.54322
4.01963
4.98201
7.22491
16.5197
50.407
0.106247
0.036265
0.0806791
0.0431673
0.025426
0.01117
0.00594445
0.0248428
0.0456331
0.0740917
0.109729
0.27391
0.145143
0.537849
2.069
1.59754
1.64184
1.71018
1.83578
2.07128
2.33771
2.74944
3.16243
3.55888
3.9515
4.42134
5.59152
8.10896
15.6834
45.7033
0.0740111
0.0307905
0.0733108
0.0462589
0.0282805
0.0163605
0.000574227
0.0206717
0.0421233
0.0698927
0.0993002
0.252144
0.12418
0.325079
2.26123
2.16774
2.41396
2.5185
2.51541
2.74082
3.01065
3.33783
3.72786
4.07357
4.39998
4.80965
5.94949
8.38548
14.0348
36.5712
0.0334977
0.0133966
0.0384608
0.0297606
0.0200953
0.0132433
0.00309281
0.0106887
0.0243025
0.0425027
0.0612161
0.153374
0.069402
0.0798505
1.92515
2.63087
3.18186
3.66718
3.48255
3.61534
3.88454
4.13058
4.43088
4.6867
4.89754
5.19113
6.0958
8.19556
12.2437
27.005
0.0145565
0.0017525
0.00809486
0.00810708
0.00587853
0.00374337
8.55371e-05
0.00496078
0.0101709
0.0167109
0.0224601
0.0476977
0.0380092
0.131607
1.1972
2.73184
3.63535
4.59163
4.75462
4.76252
4.92417
5.13382
5.2714
5.37361
5.39552
5.46404
5.98703
7.62737
10.5494
19.0168
0.0114899
0.000433442
0.000261683
0.000489888
0.000386064
0.00022003
0.000126697
0.000685015
0.00133495
0.00222747
0.0034461
0.0126665
0.056116
0.300733
0.780653
2.3249
3.55549
4.7118
5.47516
5.87609
5.95232
6.05445
6.03878
5.9108
5.64635
5.36077
5.44323
6.6264
8.92922
12.9822
0.010854
0.00149762
0.000536453
0.000235813
8.11489e-05
2.11191e-05
4.48146e-05
0.00016921
0.000413547
0.00101889
0.00267068
0.0134899
0.0755542
0.381979
0.996891
1.56243
2.89571
3.96145
4.81115
5.66315
6.12481
6.19882
6.07726
5.70215
5.09547
4.4322
4.17325
5.12124
7.40757
8.76812
0.0091407
0.00165836
0.000886607
0.000552357
0.000183411
8.52274e-06
0.000166773
0.000431682
0.000852625
0.00175095
0.00398965
0.0156687
0.0826963
0.389922
1.37679
0.895749
1.91177
2.77028
3.42003
4.00106
4.607
4.80478
4.61016
4.04275
3.19972
2.40069
2.20718
3.40076
6.24681
6.25303
0.00692266
0.00123294
0.000743566
0.000543371
0.000162203
4.49198e-05
0.000253006
0.000566836
0.00106144
0.00208141
0.0046121
0.0160078
0.0829208
0.368984
1.54692
0.598501
1.03201
1.55213
1.94108
2.21436
2.35215
2.39826
2.07666
1.43909
0.757519
1.06019
0.503407
2.18532
5.52826
4.95488
0.00479153
0.000734186
0.000505748
0.000427118
0.000106969
9.47848e-05
0.000300382
0.00061877
0.00113902
0.00221228
0.00492265
0.0157059
0.0796636
0.339989
1.48826
0.565451
0.531214
0.716036
0.857904
0.913216
0.836575
0.600313
0.489046
1.01973
1.46896
1.47656
0.648585
1.49161
4.58055
3.75832
0.0030738
0.000337275
0.000299038
0.000297861
5.26852e-05
0.000132849
0.000329872
0.000645066
0.00118164
0.00229338
0.00513764
0.0152382
0.074151
0.305738
1.29671
0.598798
0.338546
0.318223
0.301169
0.238346
0.180195
0.460458
0.841731
1.25889
1.54116
1.41857
0.643481
0.902913
3.26897
2.37843
0.00181953
8.29134e-05
0.000155373
0.000186984
8.91792e-06
0.000158722
0.000349248
0.000663104
0.00121577
0.00236159
0.00529869
0.0146971
0.0669735
0.267534
1.05486
0.600557
0.281822
0.17112
0.0804598
0.122062
0.300669
0.549992
0.859164
1.17055
1.34698
1.21391
0.632437
0.392088
2.02739
1.18247
0.000966098
4.11327e-05
6.63712e-05
0.000100141
2.63591e-05
0.000177494
0.000364877
0.00068065
0.00124934
0.00242249
0.00539898
0.0140729
0.0586854
0.22662
0.812643
0.556008
0.260332
0.12356
0.0184102
0.145091
0.306107
0.513968
0.755995
0.983709
1.10251
1.00185
0.61492
0.0220322
1.08586
0.362926
0.000466461
7.85768e-05
1.75989e-05
3.78814e-05
5.35595e-05
0.000191092
0.000378365
0.000698539
0.00128079
0.00246841
0.00541598
0.0133244
0.0498874
0.184834
0.596522
0.479356
0.238969
0.105942
0.0169318
0.132016
0.268683
0.434735
0.617826
0.781122
0.866028
0.806261
0.571618
0.200395
0.45791
0.19356
0.000203598
6.94338e-05
7.64302e-06
4.62159e-06
7.52634e-05
0.000202581
0.000391474
0.000716452
0.00130608
0.00248779
0.00532669
0.0124072
0.0411619
0.144456
0.418419
0.387958
0.21079
0.0945466
0.00952441
0.108111
0.219187
0.347168
0.481807
0.598047
0.660191
0.63381
0.50533
0.303466
0.0829059
0.403149
7.71388e-05
4.40573e-05
2.07234e-05
3.27937e-05
9.29044e-05
0.000212711
0.000402962
0.000730142
0.00131649
0.00246428
0.00511012
0.0112867
0.0329831
0.107775
0.280982
0.29574
0.177246
0.0831337
0.00200225
0.0827308
0.16971
0.265079
0.361171
0.441908
0.48776
0.481729
0.417901
0.317225
0.102472
0.445862
2.4722e-05
2.12063e-05
2.70577e-05
5.0435e-05
0.000106767
0.00022098
0.000410492
0.000734258
0.00130266
0.0023833
0.00475754
0.0099621
0.0256717
0.0766026
0.181007
0.212449
0.141558
0.0707754
0.00608894
0.0593075
0.124965
0.193614
0.260033
0.314664
0.347323
0.351614
0.326601
0.281729
0.165201
0.393414
6.11959e-06
5.75431e-06
3.02808e-05
6.10036e-05
0.000116982
0.000226268
0.000411162
0.00072311
0.00125608
0.00223514
0.00427594
0.00847565
0.0193909
0.0518877
0.112115
0.143793
0.106981
0.0579223
0.00965499
0.0392297
0.0868746
0.134476
0.178774
0.214563
0.237126
0.244266
0.237268
0.223162
0.165935
0.306595
5.36198e-07
2.67532e-06
3.1535e-05
6.6237e-05
0.000122691
0.000226438
0.000401547
0.000691489
0.00117102
0.00201839
0.00368997
0.00691036
0.0141815
0.0335999
0.0669361
0.0917585
0.0762315
0.0453312
0.0116257
0.0231124
0.0561761
0.0878473
0.116245
0.138826
0.153731
0.160638
0.160676
0.157581
0.129452
0.214161
1.42155e-06
6.57971e-06
3.14097e-05
6.73095e-05
0.000123179
0.000219635
0.000379259
0.000636903
0.00104757
0.00174336
0.00304158
0.00537442
0.0100093
0.0209178
0.0386157
0.0553372
0.0510958
0.0337583
0.0120476
0.0111494
0.0329195
0.0530359
0.0704639
0.0841182
0.0934371
0.0986409
0.100474
0.10087
0.0867016
0.135349
3.31547e-06
8.40143e-06
3.0468e-05
6.52096e-05
0.000118283
0.000204961
0.000343877
0.000560958
0.000893181
0.00143198
0.00238409
0.00397499
0.00679557
0.012607
0.0215905
0.0316827
0.0322095
0.0238131
0.0111607
0.00318122
0.0166227
0.0287287
0.0389198
0.0467991
0.0522885
0.055644
0.0572724
0.058182
0.0508713
0.0780802
6.08654e-06
9.72511e-06
2.9357e-05
6.10614e-05
0.00010883
0.000183208
0.000297767
0.000470008
0.000722335
0.00111414
0.00177209
0.00279288
0.00442981
0.0074043
0.0117513
0.017338
0.0191461
0.0158563
0.00935775
0.00160194
0.00634915
0.0131653
0.018795
0.0231036
0.026135
0.0280636
0.0291033
0.0298012
0.026
0.0409402
9.58866e-06
1.11947e-05
2.85235e-05
5.59779e-05
9.64712e-05
0.000156843
0.000245829
0.000373937
0.000553204
0.000820359
0.00124906
0.00186708
0.00277488
0.0042596
0.00626829
0.0091506
0.0107939
0.00995173
0.00712829
0.00332318
0.000806531
0.00432055
0.00720445
0.00939719
0.0109399
0.0119321
0.0124904
0.0129167
0.010956
0.0190682
1.32196e-05
1.27473e-05
2.79478e-05
5.06926e-05
8.30363e-05
0.000129169
0.00019408
0.000283285
0.000402417
0.000573605
0.000838146
0.0011935
0.00167767
0.00241046
0.00330472
0.00470962
0.00582327
0.00589669
0.00494681
0.00337517
0.00163386
0.000125474
0.00144952
0.00245411
0.00315731
0.00361021
0.00387433
0.00410739
0.00310579
0.00745904
1.62014e-05
1.39377e-05
2.71664e-05
4.53565e-05
6.98475e-05
0.000103088
0.00014763
0.000205977
0.000280375
0.000384157
0.00054009
0.000736097
0.00098704
0.00134847
0.00173743
0.00239418
0.00304271
0.00331811
0.00314696
0.00265005
0.00202156
0.00140768
0.00088759
0.000490105
0.000211856
5.6302e-05