/*--------------------------------*- C++ -*----------------------------------*\
| =========                 |                                                 |
| \\      /  F ield         | OpenFOAM: The Open Source CFD Toolbox           |
|  \\    /   O peration     | Version:  2212                                  |
|   \\  /    A nd           | Website:  www.openfoam.com                      |
|    \\/     M anipulation  |                                                 |
\*---------------------------------------------------------------------------*/
FoamFile
{
    version     2.0;
    format      ascii;
    arch        "LSB;label=32;scalar=64";
    class       volScalarField;
    location    "10000";
    object      Q_sep;
}
// * * * * * * * * * * * * * * * * * * * * * * * * * * * * * * * * * * * * * //

dimensions      [0 0 0 0 0 0 0];

internalField   nonuniform List<scalar> 
18080
(
0.143958
1.10319
2.8467
5.54566
9.38232
14.6797
21.7969
31.1075
42.9991
57.9528
77.084
101.359
131.9
170.002
217.117
274.867
345.037
429.601
530.767
651.07
793.487
961.503
1159.04
1390.11
1657.96
1963.76
2304.65
2672.23
3051.27
3418
3744.44
4001
4159.55
4199.41
4110.74
3894.23
3564.71
3147.05
2675.17
2187.12
1719.24
1300.72
949.662
672.016
463.587
314.278
210.523
140.175
0.183833
1.10405
2.69303
5.13324
8.55755
13.2047
19.3383
27.2393
37.2237
49.656
65.3605
85.4587
111.194
144.158
186.364
240.334
309.176
396.646
507.172
645.801
818.039
1029.49
1285.29
1589.24
1942.66
2343.02
2782.32
3246.29
3713.51
4154.65
4536.57
4824.7
4986.33
4997.84
4849
4544.38
4107.03
3573.17
2988.95
2402.43
1855.97
1380.25
991.177
690.593
469.792
314.705
208.722
138.363
0.170341
1.05244
2.6048
4.9986
8.36895
12.9609
19.0497
26.9307
36.9342
49.4343
65.2459
85.4904
111.387
144.473
186.66
240.299
308.222
393.769
500.764
633.422
796.167
993.29
1228.46
1504.04
1820.21
2174.02
2558.18
2960.66
3364.13
3744.93
4076.35
4330.27
4479.05
4501.21
4385.67
4132.57
3758.45
3292.03
2772.58
2243.13
1743.34
1303.34
940.127
657.392
448.44
300.987
199.875
132.735
0.184311
1.06415
2.60926
4.99182
8.34855
12.924
18.9915
26.8435
36.8067
49.251
64.9734
85.0939
110.825
143.703
185.645
239.021
306.707
392.121
499.213
632.396
796.37
995.796
1234.81
1516.3
1841
2206.41
2605.49
3026.12
3450.29
3853.16
4206.28
4479.24
4642.15
4671.68
4555.42
4293.56
3903.59
3416.3
2873.49
2320.76
1799.86
1342.25
965.422
672.902
457.413
305.885
202.31
134.079
0.19412
1.06031
2.5933
4.96127
8.30015
12.8536
18.8953
26.7182
36.6497
49.0623
64.7434
84.818
110.498
143.317
185.186
238.466
306.016
391.224
497.993
630.664
793.832
992.017
1229.17
1507.97
1828.9
2189.27
2581.91
2994.7
3409.84
3803
4146.4
4410.57
4566.52
4591.73
4474.38
4214.71
3829.98
3350.27
2816.51
2273.35
1761.73
1312.51
942.856
656.175
445.225
297.081
195.933
129.459
0.218292
1.0738
2.5996
4.95767
8.28335
12.82
18.8414
26.6414
36.5457
48.9276
64.5655
84.5848
110.194
142.921
184.672
237.802
305.162
390.133
496.618
628.957
791.759
989.57
1226.39
1504.97
1825.92
2186.66
2580.19
2994.55
3412.04
3808.36
4155.7
4424.29
4584.77
4614.16
4500.06
4242.29
3857.83
3376.71
2840.11
2293.12
1777.23
1323.84
950.514
660.894
447.813
298.266
196.192
129.336
0.256719
1.09601
2.61269
4.95916
8.26979
12.7876
18.7857
26.5579
36.4318
48.7769
64.3641
84.3203
109.851
142.479
184.107
237.083
304.249
388.976
495.154
627.107
789.428
986.644
1222.74
1500.45
1820.39
2179.97
2572.25
2985.3
3401.47
3796.59
4142.95
4410.84
4570.98
4600.39
4486.63
4229.45
3845.71
3365.32
2829.41
2283.05
1767.75
1315
942.391
653.603
441.446
292.849
191.63
125.603
0.317104
1.13455
2.6425
4.97731
8.27235
12.7702
18.7433
26.4848
36.3222
48.625
64.1522
84.0322
109.466
141.972
183.446
236.226
303.146
387.567
493.363
624.85
786.61
983.172
1218.53
1495.45
1814.6
2173.48
2565.23
2978.07
3394.46
3790.33
4138.05
4407.88
4570.37
4602.37
4491.11
4236
3853.62
3373.65
2837.19
2289.44
1772.23
1317.38
942.86
652.584
439.489
290.474
189.148
123.365
0.410671
1.19572
2.69392
5.01498
8.2917
12.7663
18.7101
26.415
36.2072
48.457
63.9085
83.6917
109.002
141.352
182.63
235.164
301.778
385.82
491.152
622.08
783.179
978.98
1213.49
1489.52
1807.79
2165.87
2557.04
2969.6
3386.14
3782.68
4131.67
4403.31
4568.02
4602.48
4493.58
4240.42
3859.25
3379.54
2842.33
2292.97
1773.6
1316.5
940.024
648.38
434.624
285.568
184.567
119.431
0.553579
1.28964
2.77647
5.08078
8.33549
12.7827
18.6918
26.3526
36.0892
48.2704
63.6284
83.2884
108.442
140.592
181.618
233.84
300.066
383.633
488.393
618.641
778.954
973.871
1207.43
1482.5
1799.88
2157.27
2548.07
2960.76
3378.03
3776.04
4127.31
4401.95
4570.18
4608.4
4503.05
4252.75
3873.3
3393.82
2855.28
2303.25
1780.35
1319.48
939.641
645.487
430.282
280.736
179.87
115.359
0.765845
1.42848
2.90124
5.1843
8.41144
12.825
18.6916
26.2979
35.9646
48.0572
63.2945
82.7952
107.744
139.636
180.339
232.159
297.894
380.867
484.92
614.344
773.722
967.617
1200.12
1474.17
1790.67
2147.49
2538.19
2951.43
3370.06
3770.34
4124.89
4403.65
4576.57
4619.68
4518.85
4272.07
3894.56
3415
2874.31
2318.34
1790.36
1324.17
939.633
641.991
424.782
274.561
173.907
110.22
1.07141
1.62657
3.08124
5.33699
8.52914
12.9009
18.7148
26.2529
35.8311
47.8099
62.8893
82.1875
106.874
138.434
178.722
230.033
295.149
377.383
480.569
609.002
767.28
960.006
1191.34
1464.33
1780.03
2136.5
2527.49
2941.92
3362.76
3766.44
4125.63
4410.07
4589.32
4638.95
4544.05
4301.82
3926.67
3446.78
2902.94
2341.4
1806.35
1332.75
941.621
639.047
418.929
267.613
167.112
104.362
1.4944
1.89832
3.32927
5.55035
8.69873
13.0191
18.7683
26.2217
35.6884
47.5224
62.3995
81.4391
105.791
136.93
176.696
227.369
291.718
373.046
475.184
602.438
759.438
950.845
1180.92
1452.84
1767.88
2124.31
2516.15
2932.58
3356.77
3765.31
4130.87
4422.92
4610.51
4668.55
4581.18
4344.57
3972.18
3491.51
2943.25
2374.16
1829.58
1346.02
946.01
636.743
412.617
259.707
159.297
97.6171
2.05029
2.25281
3.65488
5.83412
8.93049
13.1906
18.8629
26.2137
35.5429
47.1962
61.821
80.5345
104.475
135.092
174.216
224.108
287.527
367.768
468.666
594.547
750.089
940.037
1168.78
1439.7
1754.29
2111.1
2504.48
2923.89
3352.73
3767.76
4141.73
4443.72
4642.12
4711.02
4633.27
4403.78
4034.77
3552.91
2998.78
2419.8
1862.77
1366.12
954.336
636.1
406.483
251.245
150.749
90.2086
2.73777
2.6879
4.05546
6.18683
9.22493
13.4177
19.0021
26.2318
35.3949
46.8272
61.1435
79.4574
102.895
132.882
171.231
220.19
282.505
361.466
460.921
585.229
739.136
927.491
1154.85
1424.84
1739.26
2097.04
2492.9
2916.66
3351.87
3775.44
4160.1
4474.41
4686.07
4768.25
4702.36
4481.68
4116.9
3633.65
3072.27
2480.97
1908.27
1394.97
968.043
638.085
401.123
242.593
141.727
82.344
3.52805
3.18537
4.51581
6.5991
9.58066
13.7076
19.2006
26.2961
35.2682
46.4422
60.3978
78.2454
101.095
130.356
167.813
215.704
276.763
354.283
452.13
574.708
726.855
913.565
1139.6
1408.83
1723.38
2082.58
2481.65
2910.87
3354.31
3789.17
4187.96
4518.3
4746.73
4845.28
4793.68
4583.49
4223.68
3738.63
3168.39
2561.97
1969.88
1435.72
989.515
644.363
397.63
234.478
132.763
74.4589
4.36088
3.71054
5.00815
7.05393
9.99428
14.0705
19.4798
26.4366
35.1994
46.0838
59.6349
76.9603
99.1504
127.602
164.07
210.782
270.464
346.414
442.525
563.268
713.562
898.503
1123.12
1391.77
1707.03
2068.66
2472.31
2908.58
3361.15
3807.89
4222.13
4571.06
4819.94
4938.94
4905.28
4708.32
4355.03
3868.45
3288.34
2664.56
2049.71
1490.53
1020.69
656.463
397.106
227.697
124.488
67.0862
5.13887
4.20408
5.48152
7.51301
10.4424
14.4953
19.8356
26.6503
35.1839
45.7458
58.8473
75.5944
97.0576
124.616
160.004
205.428
263.609
337.856
432.081
550.764
699.068
882.378
1105.88
1374.1
1690.2
2054.61
2463.6
2908.44
3373.7
3836.86
4269.93
4638.49
4908.13
5049.19
5036.38
4855.83
4511.49
4024.48
3434.19
2791.43
2150.94
1562.79
1064.76
677.071
401.595
223.755
118.053
61.1534
5.75371
4.60024
5.88221
7.94097
10.9105
14.983
20.2752
26.9452
35.2301
45.4398
58.0538
74.1774
94.8608
121.462
155.696
199.747
256.326
328.718
420.934
537.593
683.725
864.975
1086.99
1354.66
1671.53
2038.64
2452.88
2906.04
3383.88
3864.5
4320.03
4715.27
5011.92
5178.13
5187.01
5025
4692.65
4207.71
3608.47
2946.45
2278.43
1657.87
1127.04
710.78
414.588
225.124
115.209
57.9185
6.10985
4.84362
6.16863
8.31879
11.4038
15.5521
20.8178
27.3364
35.3533
45.1868
57.2878
72.7612
92.6366
118.249
151.29
193.909
248.822
319.37
409.45
523.824
667.768
846.951
1067.32
1334.5
1652.63
2023.32
2444.07
2906.98
3397.41
3894.61
4372.11
4794.18
5121.44
5319.99
5358.04
5217.87
4898.51
4417.42
3811
3130.5
2434.15
1778.53
1210.53
760.185
437.777
232.643
116.312
57.5287
6.15683
4.90353
6.32132
8.65107
11.9502
16.2347
21.4828
27.8318
35.5588
44.998
56.5734
71.3892
90.4543
115.07
146.904
188.12
241.357
309.953
397.944
510.011
651.714
829.066
1048.26
1315.19
1634.55
2008.72
2435.98
2909.01
3413.64
3930.31
4431.79
4879.35
5234.93
5465.46
5536.27
5425.79
5126.16
4649.06
4035.84
3338.18
2614.37
1923.03
1315.16
825.903
471.392
245.924
120.773
59.4175
5.90361
4.78228
6.34944
8.97132
12.6013
17.0703
22.2827
28.4279
35.8416
44.8752
55.9259
70.0931
88.3633
112.026
142.7
182.495
234.113
300.842
386.787
496.796
636.39
811.702
1029.25
1295.38
1615.47
1992.61
2425.94
2908.49
3426.06
3961.12
4487.57
4964.01
5350
5613.05
5714.95
5635.23
5359.79
4896.24
4279.43
3564.92
2815.22
2089.39
1440.89
908.804
515.737
264.4
127.857
62.9794
5.40967
4.50794
6.2829
9.33358
13.4185
18.0878
23.2098
29.1046
36.1846
44.8095
55.3497
68.9077
86.4348
109.157
138.731
177.231
227.323
292.368
376.411
484.287
621.643
794.841
1010.71
1276.02
1596.81
1976.95
2416.1
2907.89
3437.62
3990.7
4540.99
5044.22
5460.86
5760.77
5896.13
5848.51
5598.23
5146.69
4529.8
3803.69
3029.32
2271.58
1584.16
1007.13
569.046
285.814
135.831
67.1051
4.77694
4.12869
6.16838
9.80573
14.4584
19.2897
24.231
29.8266
36.5588
44.7768
54.868
67.8305
84.6548
106.554
135.133
172.484
221.224
284.644
366.819
472.662
607.914
779.096
993.432
1257.97
1578.99
1961.13
2405.46
2905.7
3445.99
4015.72
4589.26
5118.17
5564.09
5901.36
6070.96
6061.58
5838.38
5395.57
4777.48
4040.84
3248.77
2462.79
1740.6
1118.81
629.409
307.804
143.29
71.1769
4.10065
3.6914
6.05209
10.45
15.7504
20.6433
25.2971
30.5589
36.9342
44.7723
54.4063
66.8439
83.0469
104.232
131.96
168.244
215.689
277.601
358.078
462.1
595.461
764.811
977.478
1240.76
1561.75
1945.56
2394.36
2902.28
3451.45
4036.56
4632.51
5185.93
5660.66
6038.18
6242.76
6274.79
6081.34
5651.45
5029.24
4278.55
3469.07
2660.06
1908.18
1243.27
695.827
328.467
149.508
75.2318
3.45924
3.24236
5.98304
11.3186
17.2904
22.0861
26.3537
31.2634
37.3194
44.766
53.9864
65.9708
81.6592
102.193
129.125
164.445
210.753
271.34
350.29
452.585
584.051
751.448
962.193
1224.1
1544.59
1929.3
2381.63
2896.27
3452.56
4051.74
4669.11
5245.39
5747.28
6165.8
6402.75
6476.88
6310.79
5889.16
5263.57
4500.86
3673.53
2852.07
2079.82
1377.42
766.427
345.813
154.179
79.8089
2.89684
2.81095
5.99094
12.4265
19.0278
23.5345
27.3489
31.9178
37.6213
44.7081
53.5971
65.1718
80.3649
100.292
126.498
160.928
206.152
265.419
342.799
443.278
572.603
737.642
946.031
1205.75
1524.65
1908.87
2363.13
2882.84
3443.51
4053.76
4689.04
5283.87
5808.84
6267.45
6533.51
6650.77
6510.64
6096.28
5467.11
4695.87
3860.44
3028.85
2245.71
1512.04
832.806
352.631
152.84
81.7574
2.43688
2.42306
6.09309
13.7355
20.8357
24.8411
28.1607
32.4019
37.7098
44.4539
52.9558
64.0373
78.6345
97.8052
123.058
156.251
199.9
257.167
332.052
429.438
555.114
716.01
919.881
1174.91
1489.3
1869.48
2321.42
2841.46
3400.94
4016.5
4663.88
5271.77
5815.14
6312.01
6604.03
6765.35
6650.54
6244.84
5616.12
4841.64
4006.78
3173.5
2391.41
1635.82
889.423
345.964
142.591
75.7402
2.06952
2.08308
6.2754
15.1547
22.5399
25.8187
28.591
32.3648
37.2184
43.4424
51.3243
61.5412
75.0553
92.8291
116.311
147.253
188.095
241.904
312.55
404.864
524.482
678.228
873.886
1119.87
1424.5
1794.23
2236.08
2747.59
3296.01
3905.64
4552.85
5161.71
5711.44
6235.52
6543.96
6744.84
6655.24
6267.48
5659.82
4914.47
4122.37
3343.74
2615.52
1865.13
1018.27
377.208
162.424
96.7607
1.77321
1.79573
6.53004
16.6508
24.1651
26.6254
28.9309
32.2671
36.7023
42.4745
49.844
59.3483
71.9994
88.6958
110.898
140.766
180.198
232.028
299.86
388.121
501.765
646.78
829.8
1057.68
1337.39
1673.77
2073
2532.64
3016.75
3555.09
4127.16
4661.93
5147.73
5631.99
5911.06
6126.29
6086.57
5794.83
5330.96
4764.49
4161.93
3546.18
2891.85
1902.82
770.722
180.876
25.7661
12.0482
1.55936
1.5816
6.85919
18.1494
25.6568
27.3068
29.2776
32.3364
36.5032
42.0462
49.6411
59.487
72.4132
88.9432
109.778
135.228
165.489
200.289
239.207
281.949
328.338
378.907
434.54
496.295
565.549
642.9
730.409
827.382
918.818
1020.16
1125.93
1215.26
1292.67
1381.65
1416.86
1451.83
1425.45
1346.82
1241.97
1105.42
941.017
750.15
529.735
260.384
71.8919
9.82689
1.35521
1.66997
1.39483
1.40367
7.16664
19.2906
26.4656
27.3559
29.101
32.0962
36.3209
41.7666
47.7977
53.0098
55.8064
55.2548
52.166
48.1931
44.678
42.2255
40.9953
40.9632
42.0115
44.0675
47.0486
50.8806
55.622
61.296
67.9597
75.3073
81.7124
88.9355
96.0713
100.782
103.252
104.981
100.883
97.148
88.1221
78.3423
71.4349
68.7714
67.3116
63.3129
53.8521
34.4173
13.1704
2.98862
0.973271
0.147008
1.25987
1.2765
7.30708
19.0239
25.0683
24.8982
25.9121
27.5332
27.9282
25.2575
20.2063
15.193
11.4837
9.07785
7.63525
6.82662
6.45487
6.38829
6.55934
6.91864
7.41817
8.03342
8.73922
9.51305
10.3348
11.1728
12.032
12.814
13.3227
13.9316
14.4854
14.5735
14.0717
12.627
9.40547
5.67399
1.20854
0.902964
0.411503
2.79248
6.99831
9.56317
9.53207
7.28713
4.107
2.05153
1.46897
1.07633
1.18957
1.27
6.65585
14.7673
18.0321
16.8023
15.5095
12.4388
8.66049
5.82529
4.10237
3.11184
2.53677
2.19998
2.01004
1.91402
1.88784
1.91367
1.98304
2.08441
2.20982
2.35071
2.49579
2.63703
2.76689
2.87886
2.97893
3.0194
2.97425
2.94939
2.93048
2.8674
2.77527
2.48458
1.66418
0.566472
1.15176
2.46694
2.48628
1.20893
0.210746
1.0648
1.38754
1.3848
1.37594
1.32732
1.20319
1.19326
1.2604
1.28643
4.17861
7.75734
8.82807
7.35057
5.3891
3.62095
2.50816
1.87997
1.51447
1.28539
1.12844
1.01536
0.932425
0.870603
0.826794
0.795865
0.773705
0.755948
0.740324
0.724805
0.706075
0.682255
0.649773
0.607319
0.558165
0.47526
0.373437
0.273144
0.140917
0.0653367
0.0659526
0.0626215
0.0216024
0.341631
1.01469
1.68572
2.14736
2.25211
2.17564
2.04679
1.88367
1.5021
0.729492
0.1624
0.0788291
0.0957318
1.94615
0.946685
1.71107
3.24197
3.61984
2.76519
1.94248
1.4376
1.14894
0.971222
0.8435
0.742632
0.658749
0.587595
0.525875
0.470525
0.420425
0.372768
0.326821
0.281148
0.234297
0.187052
0.13885
0.0896224
0.0374483
0.0177147
0.0746927
0.150813
0.222872
0.288608
0.385131
0.458897
0.412183
0.358892
0.422836
0.606496
0.820838
1.05311
1.15701
1.12723
0.997866
0.794456
0.553621
0.266716
0.241405
0.658674
0.61728
0.582598
2.61913
0.38939
0.618655
1.36101
1.55385
1.18033
0.930793
0.775486
0.656548
0.557873
0.484885
0.430714
0.384701
0.34349
0.30533
0.266997
0.227228
0.186122
0.144809
0.102818
0.0606638
0.019284
0.0217538
0.0623361
0.103594
0.145183
0.186574
0.239681
0.286044
0.325967
0.388432
0.471486
0.460488
0.345874
0.371769
0.491083
0.455396
0.301861
0.106928
0.06818
0.212405
0.310521
0.331311
0.298816
0.371255
0.457489
0.363975
0.298724
1.48647
0.132289
0.23806
0.612483
0.747218
0.612822
0.496139
0.422248
0.38015
0.341692
0.305764
0.273003
0.241236
0.210495
0.180627
0.151559
0.123626
0.0953065
0.0659591
0.0354516
0.00467626
0.0256076
0.0555138
0.0849289
0.114618
0.1443
0.173732
0.210933
0.242585
0.270334
0.313881
0.352112
0.378293
0.38514
0.308969
0.329888
0.303044
0.253545
0.209258
0.166254
0.139197
0.141003
0.172789
0.179332
0.101429
0.034217
0.040493
0.0479736
0.555091
0.0494656
0.0989541
0.290801
0.377419
0.31417
0.28855
0.266036
0.247558
0.227765
0.205869
0.183032
0.15939
0.135848
0.112782
0.0906612
0.0699126
0.0496762
0.0297273
0.00971862
0.0103475
0.0302431
0.0501496
0.0700051
0.0902665
0.110655
0.131021
0.156706
0.178112
0.195532
0.224519
0.251018
0.257797
0.285511
0.257701
0.176283
0.170674
0.1233
0.0864434
0.0769038
0.0685774
0.0498988
0.00342387
0.0798927
0.198054
0.267657
0.249969
0.201127
0.205075
0.0211212
0.0417974
0.133434
0.195854
0.188769
0.184429
0.175603
0.164932
0.152149
0.137155
0.121224
0.104704
0.0883566
0.0723248
0.0568286
0.0421586
0.0280564
0.0145229
0.00127294
0.0117594
0.0245269
0.0371569
0.0496391
0.0622721
0.0749404
0.0876991
0.103888
0.117319
0.127644
0.142758
0.163114
0.176762
0.179871
0.210098
0.0982019
0.0951534
0.194691
0.233034
0.242304
0.249246
0.267336
0.302505
0.318448
0.32719
0.287396
0.192139
0.146334
0.0733317
0.00926934
0.0199666
0.0748814
0.115058
0.113785
0.113223
0.108819
0.102392
0.0945065
0.08545
0.0758257
0.0657801
0.0557393
0.0455739
0.0355478
0.0259634
0.0166821
0.00771882
0.00108685
0.00974111
0.018184
0.0265159
0.034736
0.0430712
0.051327
0.0595729
0.0700168
0.078744
0.0857362
0.0949048
0.104196
0.11631
0.129389
0.144319
0.158248
0.0404045
0.0765289
0.151835
0.192572
0.195587
0.162636
0.090748
0.0355739
0.0234167
0.0246925
0.00196086
0.0152643
0.0252617
0.00475071
0.0099309
0.0409133
0.0623556
0.0617921
0.0625688
0.0611147
0.0582171
0.0541481
0.0493141
0.0440635
0.0384609
0.0327288
0.0268697
0.0211151
0.0154865
0.00986726
0.00428264
0.0013511
0.00697101
0.0125151
0.0180794
0.0236192
0.0292816
0.0349248
0.0405517
0.0476673
0.053671
0.0587819
0.065794
0.0712588
0.0734248
0.0881745
0.0919177
0.105714
0.132514
0.130096
0.110914
0.0970872
0.104219
0.121025
0.130938
0.108873
0.0320888
0.03355
0.0357088
0.0270049
0.00857633
0.00234655
0.00424146
0.0177844
0.0265564
0.0268539
0.0280795
0.0281458
0.0273571
0.0259484
0.0240986
0.0219743
0.0196
0.0170969
0.0145858
0.0120126
0.00927164
0.00636852
0.00329057
2.74807e-05
0.00355403
0.00727236
0.0109951
0.0147233
0.0185623
0.022401
0.0261561
0.0308412
0.0348452
0.038462
0.043816
0.0486579
0.0487613
0.0506395
0.06208
0.0549176
0.0502262
0.0510079
0.054378
0.0509941
0.0393075
0.0286416
0.0237006
0.0178661
0.0105314
0.0325181
0.0179403
0.00257021
0.00237699
0.000903055
0.00128808
0.00503068
0.00739011
0.0081016
0.00913827
0.0096394
0.00971797
0.00951673
0.00909534
0.00851467
0.0077829
0.00694862
0.00603412
0.00502171
0.00392183
0.00273059
0.00146609
0.000115421
0.00131788
0.00275573
0.00427008
0.00601356
0.00806004
0.0104274
0.0131195
0.0166155
0.0198282
0.0227509
0.0265992
0.0305887
0.032505
0.0311799
0.0322384
0.0395201
0.0361919
0.0280654
0.0199482
0.0146734
0.0161053
0.0237422
0.0373996
0.0421655
0.0242119
0.00419106
0.00542135
0.0182069
0.000496058
0.000215378
0.000233305
0.000793516
0.00114595
0.00138528
0.00170479
0.00193552
0.00208101
0.00215811
0.00218037
0.00215859
0.00208984
0.00197963
0.0018114
0.00158152
0.00129814
0.000935626
0.000484543
6.83474e-05
0.000712951
0.00141375
0.00218925
0.00301872
0.00388737
0.00476277
0.00564105
0.00678444
0.00777003
0.00860464
0.00992672
0.0114501
0.0126694
0.0151815
0.0180149
0.0194669
0.0193351
0.016277
0.0122642
0.0124853
0.0191347
0.0263641
0.0331271
0.0329931
0.0183222
0.00430276
0.00391885
0.00893597
2.83102e-05
2.39802e-05
2.24268e-05
6.89362e-05
9.87255e-05
0.000127977
0.00016638
0.000197072
0.000219722
0.000235884
0.000246412
0.000251949
0.000251549
0.000245492
0.000233685
0.000213774
0.000184267
0.00014375
9.12408e-05
2.38817e-05
6.07077e-05
0.000175669
0.000336734
0.000546257
0.00083242
0.00121568
0.00171184
0.00239281
0.00308371
0.00373027
0.00453341
0.00537867
0.00600133
0.00658153
0.00727477
0.00831704
0.00947613
0.0100747
0.0105015
0.0116315
0.0136212
0.0154891
0.0171241
0.0159499
0.0081487
0.000738551
0.000249149
0.00349346
8.58099e-07
9.55897e-07
8.37223e-07
2.66251e-06
3.70024e-06
4.98676e-06
6.71537e-06
8.15864e-06
9.29509e-06
1.01876e-05
1.0864e-05
1.13449e-05
1.15739e-05
1.15304e-05
1.113e-05
1.01769e-05
8.47464e-06
5.69216e-06
1.45057e-06
4.77906e-06
1.34127e-05
2.42652e-05
3.8281e-05
5.58808e-05
7.69228e-05
0.000100556
0.000126421
0.000162448
0.000195277
0.000232748
0.000314859
0.00043736
0.000609116
0.000941165
0.00118793
0.0011252
0.00100362
0.00103028
0.00134236
0.00196289
0.00271087
0.00335826
0.0038546
0.00358294
0.00182138
0.000299534
0.000549667
0.00255981
3.85667e-09
5.37902e-09
5.30818e-09
1.61168e-08
2.44323e-08
3.3644e-08
4.64087e-08
5.73231e-08
6.62296e-08
7.36449e-08
7.98647e-08
8.51961e-08
8.94807e-08
9.3035e-08
9.58569e-08
9.75706e-08
9.86988e-08
9.98084e-08
1.02453e-07
1.08701e-07
1.22463e-07
1.52006e-07
1.73094e-07
1.75842e-07
1.30693e-07
2.05482e-08
3.78744e-07
1.14997e-06
2.36021e-06
4.1064e-06
6.65114e-06
1.00255e-05
1.40201e-05
1.97179e-05
2.54853e-05
3.06364e-05
3.46736e-05
3.10639e-05
1.85049e-05
7.70918e-06
1.08173e-05
2.01683e-05
3.94909e-05
4.63123e-05
6.7237e-06
3.58836e-05
4.11342e-05
0.000177689
7.39913e-05
2.71063e-06
6.68341e-08
6.9193e-11
1.60378e-09
1.03311e-09
7.72642e-10
1.16589e-09
2.05758e-09
5.07196e-09
1.22516e-08
6.5101e-08
7.41952e-06
2.26236e-05
1.23745e-05
5.89027e-07
1.70952e-07
1.0453e-07
8.22256e-08
1.43161e-07
3.0904e-07
7.23969e-07
1.7147e-06
3.97697e-06
8.93768e-06
2.04015e-05
5.40982e-05
0.000171724
0.000762097
0.0338366
0.00180011
0.00024209
1.75194e-05
3.22585e-06
1.20608e-06
8.26915e-07
7.92605e-07
7.33277e-07
6.66386e-07
6.09779e-07
1.15206e-06
4.49613e-06
0.000754544
0.00226798
0.00125759
4.25315e-06
2.83215e-08
3.14201e-06
2.97257e-06
4.02258e-06
6.91695e-06
1.38411e-05
2.91034e-05
6.63968e-05
0.00013735
0.000284193
0.000576952
0.000550171
0.0101036
0.291301
0.00961186
0.00250699
0.000268009
8.14757e-05
3.52441e-05
2.51662e-05
2.43671e-05
2.37176e-05
2.3674e-05
2.75334e-05
5.0449e-05
2.22716e-05
0.00889815
0.0250683
0.0160686
0.00062761
6.4299e-06
7.48496e-05
5.05505e-05
4.22718e-05
4.7102e-05
6.00594e-05
7.07376e-05
3.27706e-05
0.000192012
0.00101274
0.00387379
0.0174672
0.0115939
1.0662
0.0265261
0.00885188
0.00125685
0.000543695
0.000278929
0.000208012
0.000203174
0.000198031
0.00019637
0.00022674
0.000395737
1.75623e-05
0.0381219
0.101964
0.0733615
0.00782645
0.000370352
0.00051385
0.000391875
0.000316305
0.000366897
0.000477388
0.000634459
0.000722429
0.000457255
0.00131575
0.00858133
0.0474726
0.19031
0.814609
0.0527069
0.0198814
0.00333076
0.00179811
0.001059
0.000831444
0.000823921
0.000808876
0.000809914
0.00095205
0.00154949
0.000271104
0.0967556
0.256158
0.186303
0.0345219
0.00317377
0.00131914
0.00179862
0.00149607
0.00174767
0.00234244
0.00358459
0.00619476
0.0103149
0.0149982
0.0205472
0.0116611
1.00029
3.64237
0.0882409
0.0362444
0.00666729
0.00411697
0.00269523
0.00223334
0.00226247
0.0022712
0.00234739
0.00285214
0.00443613
0.00144116
0.18812
0.504431
0.351975
0.0836133
0.0123935
0.00209256
0.00504566
0.00505499
0.00642866
0.00941038
0.0152425
0.0268575
0.048874
0.0877621
0.172776
0.303052
2.90341
13.7296
0.134791
0.059773
0.0115891
0.00770256
0.00541628
0.00468129
0.00482039
0.00493161
0.00522691
0.0064516
0.00982828
0.00484944
0.317595
0.872993
0.567833
0.14721
0.0298033
0.00222552
0.0102807
0.0107641
0.0154145
0.0242464
0.0420899
0.0773337
0.147026
0.281765
0.58239
1.16296
5.69629
26.8744
0.19492
0.0962919
0.0191203
0.0131799
0.00966236
0.00855893
0.00886972
0.00920579
0.0100037
0.0125939
0.0189891
0.0121059
0.503534
1.42534
0.844339
0.218563
0.050807
0.00642473
0.0148671
0.0176418
0.0279071
0.0485866
0.0896882
0.172202
0.333046
0.637665
1.2805
2.47047
8.34902
36.2198
0.269583
0.147763
0.0322427
0.0227836
0.0168912
0.0149916
0.015475
0.0162004
0.0179806
0.0231544
0.0357475
0.0283137
0.820732
2.40079
1.21295
0.306224
0.072322
0.0213572
0.0145833
0.0250654
0.0438375
0.0818795
0.156252
0.302117
0.581118
1.08615
2.07659
3.78906
9.90628
38.1277
0.351371
0.20844
0.0504505
0.037924
0.0302761
0.0279741
0.0291904
0.0308793
0.0347801
0.0449421
0.0677272
0.0580129
1.19694
3.67043
1.72676
0.424501
0.101133
0.0380545
0.00959328
0.0279269
0.058232
0.113461
0.223045
0.432417
0.820782
1.49176
2.72737
4.77003
10.2473
33.975
0.413009
0.261211
0.0709381
0.056394
0.0480419
0.0459201
0.048234
0.0514868
0.0586177
0.0757175
0.112504
0.0997936
1.52424
4.94636
2.3556
0.576531
0.135668
0.0594288
0.00159026
0.0253739
0.0653995
0.135826
0.270891
0.527114
0.991594
1.77005
3.12963
5.29516
9.78765
27.2121
0.40892
0.265143
0.0840615
0.0711527
0.0648959
0.0643681
0.0682766
0.0737314
0.0845593
0.108562
0.157964
0.131353
1.47684
5.28169
2.89768
0.755194
0.174425
0.0842418
0.00762653
0.0195741
0.0653084
0.146566
0.295483
0.576366
1.07926
1.90785
3.29909
5.43207
9.00178
20.6545
0.323579
0.185124
0.0727406
0.0671178
0.0661876
0.067363
0.0725806
0.0790975
0.090133
0.112505
0.155229
0.0885449
0.694874
3.11269
2.99991
0.92904
0.217108
0.103838
0.0159672
0.0166423
0.0634379
0.148394
0.305438
0.593444
1.10842
1.94891
3.31437
5.34681
8.22551
15.6582
0.211622
0.06491
0.0363684
0.0371438
0.0394436
0.0405455
0.0438184
0.0466642
0.0498272
0.0551542
0.0609995
0.0621919
0.455503
0.768018
2.20587
1.01682
0.246792
0.101502
0.0118519
0.0225953
0.0701968
0.15557
0.313634
0.604009
1.1213
1.96112
3.28739
5.22857
7.67941
12.4674
0.129159
0.0196189
0.00229884
0.00536588
0.0056889
0.00455701
0.00279511
0.00128264
0.00924087
0.0242882
0.057782
0.211975
1.13663
3.10656
0.569937
0.904301
0.23253
0.0708745
0.0255137
0.0574376
0.104868
0.189555
0.347591
0.644652
1.17286
2.03134
3.358
5.27331
7.53385
10.835
0.0849114
0.052724
0.0153762
0.011055
0.0121761
0.0150459
0.0199224
0.0281397
0.0422348
0.0677081
0.12056
0.281481
1.30111
3.70713
1.09061
0.5308
0.135815
0.00361004
0.105264
0.150569
0.20054
0.293385
0.467696
0.78917
1.36287
2.29661
3.71018
5.70129
7.95959
10.4464
0.0629325
0.0566952
0.0211378
0.0160128
0.0178542
0.0214786
0.0274309
0.0370685
0.0531441
0.0817609
0.140398
0.29684
1.23682
3.5783
2.1685
0.0272387
0.0599788
0.151058
0.234558
0.30487
0.390398
0.516687
0.740997
1.1365
1.82137
2.91198
4.50126
6.62895
8.94221
10.8515
0.0497632
0.0504587
0.021712
0.0165081
0.0187021
0.0226447
0.0288754
0.0388483
0.055271
0.0842172
0.14321
0.290425
1.10328
3.21788
2.61935
0.586885
0.308758
0.342444
0.400501
0.484509
0.616355
0.817818
1.12974
1.65199
2.49141
3.75498
5.48773
7.64461
9.85951
11.1996
0.0391833
0.0421115
0.0207004
0.0158235
0.0181868
0.0222974
0.028573
0.0385365
0.054777
0.0831304
0.14052
0.276584
0.956838
2.80303
2.65234
0.992033
0.534028
0.51242
0.551036
0.643961
0.801428
1.05232
1.4432
2.0523
2.96984
4.27715
5.96771
7.93463
9.84338
10.6975
0.0297792
0.0339077
0.0190993
0.0148494
0.0172993
0.0215219
0.0277776
0.0376117
0.0534699
0.0808591
0.135703
0.259721
0.814145
2.37444
2.45909
1.20479
0.686887
0.627332
0.652307
0.745965
0.911597
1.17555
1.58219
2.19041
3.07494
4.28298
5.77485
7.42366
8.95157
9.47877
0.0218447
0.0266777
0.0172037
0.0138065
0.0162824
0.0205652
0.0267628
0.0363883
0.051726
0.0778851
0.129474
0.240913
0.681073
1.95637
2.16001
1.26244
0.759325
0.674587
0.689167
0.775472
0.934069
1.18557
1.56745
2.13351
2.92551
3.9653
5.20082
6.51327
7.68636
8.00711
0.0154777
0.0206402
0.0151869
0.0127566
0.0152159
0.0195
0.0255984
0.0349367
0.0496175
0.0742924
0.121997
0.220532
0.56074
1.56608
1.82314
1.21644
0.770033
0.671389
0.678092
0.753633
0.897376
1.1259
1.46905
1.96559
2.64323
3.4922
4.46975
5.47726
6.35302
6.54547
0.0106999
0.015748
0.0131608
0.0117145
0.0141325
0.0183549
0.0243039
0.0332697
0.0471494
0.0700874
0.113362
0.198862
0.454908
1.21689
1.48715
1.10737
0.739095
0.636594
0.637264
0.701258
0.826562
1.02617
1.32206
1.73817
2.29411
2.96811
3.71115
4.4606
5.09845
5.2116
0.00722225
0.0118535
0.0112296
0.0106911
0.0130543
0.0171514
0.0228916
0.0313934
0.0443235
0.065283
0.103704
0.176261
0.364138
0.917671
1.17468
0.963323
0.680844
0.583104
0.579003
0.631641
0.737362
0.905853
1.15228
1.49043
1.92573
2.44395
2.99485
3.53238
3.98377
4.04848
0.00476817
0.0087593
0.00942086
0.00965919
0.0119624
0.0158743
0.0213395
0.0292835
0.0411196
0.0598875
0.0931886
0.153185
0.287907
0.67227
0.898818
0.80415
0.604968
0.519114
0.511614
0.55368
0.64037
0.778185
0.976593
1.24199
1.57114
1.95141
2.35221
2.73452
3.04501
3.07987
0.00311223
0.0063655
0.00777655
0.00861831
0.0108556
0.0145266
0.0196441
0.0269375
0.0375505
0.0539662
0.082073
0.130237
0.224915
0.479638
0.665995
0.644821
0.51873
0.449916
0.440797
0.473475
0.542713
0.652101
0.80669
1.00779
1.24973
1.51768
1.79357
2.05863
2.27326
2.29368
0.00200957
0.00453816
0.00629342
0.00755486
0.00971946
0.0131043
0.0178013
0.0243594
0.0336505
0.0476285
0.0706708
0.108093
0.173445
0.33464
0.477717
0.496712
0.428505
0.379254
0.370579
0.395368
0.449299
0.533638
0.650259
0.797596
0.969122
1.15377
1.33762
1.5097
1.64765
1.6637
0.00128421
0.00317417
0.00497845
0.00647643
0.00855106
0.0116144
0.0158231
0.0215742
0.0294857
0.0410318
0.0593322
0.0874117
0.13174
0.229518
0.331846
0.367677
0.340308
0.310195
0.303868
0.322489
0.363516
0.426733
0.51198
0.616471
0.734247
0.857236
0.976965
1.08726
1.17296
1.1809
0.000814296
0.00218322
0.00384112
0.00540315
0.00735266
0.0100679
0.0137342
0.0186301
0.0251568
0.0343775
0.0484235
0.0687502
0.0982566
0.155579
0.223704
0.261867
0.259482
0.245502
0.242747
0.256954
0.287527
0.333635
0.394068
0.465879
0.544353
0.62402
0.699821
0.7686
0.821229
0.824125
0.00051595
0.00148494
0.00289258
0.00437319
0.00614625
0.00849267
0.0115851
0.0156116
0.0208077
0.0279058
0.038304
0.0525049
0.0717419
0.104638
0.14701
0.179941
0.189985
0.187593
0.188619
0.199933
0.22238
0.255154
0.29675
0.344628
0.395418
0.445666
0.492494
0.534356
0.565941
0.565975
0.000330307
0.00100674
0.00213384
0.00343095
0.0049728
0.00693561
0.00945046
0.012636
0.0166147
0.0218706
0.0292883
0.0388819
0.0511607
0.0699265
0.0948189
0.119822
0.133825
0.13824
0.142291
0.151763
0.168136
0.19091
0.218762
0.249783
0.281761
0.31265
0.340901
0.365804
0.38444
0.383018
0.000216053
0.000685354
0.00154935
0.00261168
0.00388307
0.00545934
0.0074225
0.00983899
0.0127628
0.0165031
0.0216044
0.0278937
0.0355875
0.0463729
0.0604645
0.0777891
0.091014
0.0982607
0.104019
0.11216
0.124106
0.139654
0.157863
0.177457
0.197098
0.215651
0.232329
0.24684
0.257694
0.255643
0.000145165
0.000469704
0.00111004
0.00193104
0.00292177
0.00412861
0.00559391
0.00734828
0.00940922
0.0119693
0.0153582
0.0193791
0.024138
0.0304315
0.0383242
0.0495655
0.060045
0.067454
0.0735572
0.0804653
0.089182
0.099669
0.111357
0.123482
0.1353
0.146224
0.155886
0.164185
0.170434
0.16827
9.97551e-05
0.000322559
0.000782921
0.00138581
0.00211589
0.00299368
0.00403702
0.00525576