/*--------------------------------*- C++ -*----------------------------------*\
| =========                 |                                                 |
| \\      /  F ield         | OpenFOAM: The Open Source CFD Toolbox           |
|  \\    /   O peration     | Version:  2212                                  |
|   \\  /    A nd           | Website:  www.openfoam.com                      |
|    \\/     M anipulation  |                                                 |
\*---------------------------------------------------------------------------*/
FoamFile
{
    version     2.0;
    format      ascii;
    arch        "LSB;label=32;scalar=64";
    class       volScalarField;
    location    "10000";
    object      rho;
}
// * * * * * * * * * * * * * * * * * * * * * * * * * * * * * * * * * * * * * //

dimensions      [1 -3 0 0 0 0 0];

internalField   nonuniform List<scalar> 
18080
(
1.4288
1.42879
1.42877
1.42873
1.42867
1.42858
1.42848
1.42834
1.42817
1.42796
1.42769
1.42737
1.42697
1.42648
1.42588
1.42515
1.42426
1.42319
1.42188
1.42031
1.41841
1.41614
1.41343
1.41023
1.40646
1.40208
1.39703
1.39128
1.38481
1.37764
1.36981
1.3614
1.35254
1.34337
1.33409
1.32488
1.31596
1.30751
1.29971
1.29269
1.28652
1.28123
1.2768
1.27318
1.27025
1.26794
1.26611
1.26467
1.4288
1.42879
1.42877
1.42872
1.42866
1.42858
1.42848
1.42834
1.42817
1.42796
1.42769
1.42736
1.42696
1.42647
1.42588
1.42515
1.42426
1.42318
1.42188
1.4203
1.41841
1.41614
1.41343
1.41023
1.40646
1.40208
1.39703
1.39128
1.38481
1.37764
1.36981
1.3614
1.35254
1.34337
1.33408
1.32486
1.31594
1.30748
1.29968
1.29265
1.28647
1.28118
1.27675
1.27312
1.27019
1.26787
1.26605
1.26461
1.4288
1.42879
1.42877
1.42872
1.42866
1.42858
1.42848
1.42834
1.42817
1.42795
1.42769
1.42736
1.42696
1.42647
1.42587
1.42514
1.42426
1.42318
1.42188
1.4203
1.4184
1.41613
1.41343
1.41022
1.40646
1.40207
1.39702
1.39127
1.3848
1.37763
1.36979
1.36138
1.35251
1.34334
1.33404
1.32482
1.31589
1.30743
1.29961
1.29258
1.28639
1.2811
1.27666
1.27303
1.27011
1.26778
1.26596
1.26452
1.4288
1.42879
1.42877
1.42872
1.42866
1.42858
1.42848
1.42834
1.42817
1.42795
1.42769
1.42736
1.42696
1.42647
1.42587
1.42514
1.42425
1.42318
1.42187
1.4203
1.4184
1.41613
1.41342
1.41022
1.40645
1.40207
1.39702
1.39127
1.3848
1.37762
1.36979
1.36137
1.3525
1.34332
1.33401
1.32478
1.31584
1.30737
1.29955
1.2925
1.28631
1.28101
1.27657
1.27293
1.27001
1.26769
1.26586
1.26442
1.4288
1.42879
1.42877
1.42872
1.42866
1.42858
1.42848
1.42834
1.42817
1.42795
1.42769
1.42736
1.42696
1.42647
1.42587
1.42514
1.42425
1.42317
1.42187
1.42029
1.4184
1.41613
1.41342
1.41022
1.40645
1.40207
1.39702
1.39127
1.3848
1.37762
1.36978
1.36136
1.35248
1.34329
1.33398
1.32474
1.31578
1.3073
1.29946
1.29241
1.28621
1.2809
1.27646
1.27282
1.26989
1.26757
1.26574
1.26431
1.4288
1.42879
1.42877
1.42873
1.42867
1.42858
1.42848
1.42834
1.42817
1.42795
1.42769
1.42736
1.42696
1.42647
1.42587
1.42514
1.42425
1.42317
1.42187
1.42029
1.4184
1.41613
1.41342
1.41022
1.40646
1.40208
1.39703
1.39128
1.3848
1.37762
1.36978
1.36136
1.35247
1.34327
1.33394
1.32469
1.31571
1.30722
1.29937
1.2923
1.28609
1.28077
1.27632
1.27268
1.26976
1.26744
1.26561
1.26418
1.4288
1.42879
1.42877
1.42873
1.42867
1.42859
1.42848
1.42834
1.42817
1.42795
1.42769
1.42736
1.42696
1.42647
1.42587
1.42514
1.42425
1.42317
1.42187
1.4203
1.4184
1.41613
1.41343
1.41023
1.40647
1.40209
1.39704
1.39129
1.38481
1.37763
1.36978
1.36135
1.35245
1.34324
1.3339
1.32462
1.31563
1.30711
1.29925
1.29216
1.28594
1.28061
1.27616
1.27251
1.26959
1.26727
1.26546
1.26403
1.4288
1.42879
1.42877
1.42873
1.42867
1.42859
1.42848
1.42834
1.42817
1.42796
1.42769
1.42736
1.42696
1.42647
1.42587
1.42514
1.42425
1.42318
1.42188
1.4203
1.41841
1.41614
1.41344
1.41024
1.40648
1.40211
1.39706
1.39131
1.38484
1.37765
1.3698
1.36135
1.35244
1.34321
1.33385
1.32455
1.31553
1.30699
1.2991
1.29199
1.28575
1.28041
1.27595
1.27231
1.26939
1.26708
1.26527
1.26386
1.42881
1.4288
1.42877
1.42873
1.42867
1.42859
1.42849
1.42835
1.42818
1.42796
1.4277
1.42737
1.42697
1.42648
1.42588
1.42515
1.42426
1.42319
1.42189
1.42032
1.41842
1.41616
1.41346
1.41027
1.40651
1.40214
1.39709
1.39134
1.38487
1.37768
1.36981
1.36136
1.35243
1.34317
1.33378
1.32446
1.31541
1.30683
1.29891
1.29177
1.28551
1.28016
1.27569
1.27205
1.26913
1.26684
1.26505
1.26365
1.42881
1.4288
1.42878
1.42874
1.42868
1.4286
1.42849
1.42836
1.42818
1.42797
1.42771
1.42738
1.42698
1.42649
1.42589
1.42516
1.42428
1.4232
1.4219
1.42034
1.41845
1.41619
1.41349
1.4103
1.40655
1.40218
1.39714
1.39139
1.38491
1.37771
1.36984
1.36137
1.35241
1.34313
1.33371
1.32434
1.31525
1.30663
1.29867
1.2915
1.28521
1.27984
1.27537
1.27173
1.26882
1.26654
1.26477
1.2634
1.42882
1.42881
1.42879
1.42875
1.42869
1.42861
1.4285
1.42837
1.4282
1.42798
1.42772
1.42739
1.42699
1.4265
1.42591
1.42518
1.4243
1.42323
1.42193
1.42037
1.41849
1.41623
1.41354
1.41036
1.40661
1.40225
1.39721
1.39146
1.38497
1.37777
1.36988
1.36138
1.3524
1.34308
1.33361
1.32419
1.31505
1.30638
1.29837
1.29115
1.28483
1.27944
1.27496
1.27132
1.26843
1.26618
1.26444
1.26309
1.42883
1.42882
1.4288
1.42876
1.4287
1.42862
1.42852
1.42838
1.42822
1.428
1.42774
1.42741
1.42702
1.42653
1.42594
1.42521
1.42433
1.42327
1.42198
1.42042
1.41854
1.41629
1.41361
1.41043
1.4067
1.40234
1.3973
1.39155
1.38506
1.37784
1.36993
1.3614
1.35238
1.34301
1.33349
1.32401
1.31479
1.30606
1.29798
1.29072
1.28435
1.27894
1.27445
1.27082
1.26796
1.26574
1.26404
1.26274
1.42885
1.42884
1.42882
1.42878
1.42872
1.42864
1.42854
1.42841
1.42824
1.42803
1.42777
1.42745
1.42705
1.42657
1.42598
1.42526
1.42438
1.42332
1.42204
1.42049
1.41862
1.41638
1.41371
1.41054
1.40681
1.40245
1.39742
1.39166
1.38517
1.37793
1.36999
1.36143
1.35236
1.34293
1.33333
1.32377
1.31448
1.30566
1.2975
1.29017
1.28376
1.27832
1.27382
1.27021
1.26738
1.26521
1.26357
1.26232
1.42887
1.42886
1.42884
1.4288
1.42875
1.42867
1.42857
1.42844
1.42828
1.42807
1.42781
1.42749
1.4271
1.42662
1.42603
1.42532
1.42445
1.4234
1.42212
1.42058
1.41872
1.41649
1.41383
1.41067
1.40695
1.40261
1.39757
1.39182
1.38531
1.37805
1.37008
1.36147
1.35233
1.34283
1.33314
1.32348
1.31409
1.30516
1.29692
1.28951
1.28304
1.27756
1.27307
1.26948
1.2667
1.26459
1.26301
1.26183
1.4289
1.42889
1.42887
1.42884
1.42878
1.42871
1.42861
1.42849
1.42832
1.42812
1.42786
1.42755
1.42716
1.42668
1.4261
1.4254
1.42454
1.42349
1.42223
1.4207
1.41885
1.41664
1.41399
1.41085
1.40714
1.4028
1.39777
1.392
1.38548
1.37819
1.37018
1.36151
1.3523
1.3427
1.33291
1.32314
1.31361
1.30457
1.29621
1.28871
1.28217
1.27666
1.27216
1.26861
1.26589
1.26387
1.26238
1.26129
1.42894
1.42893
1.42891
1.42888
1.42883
1.42876
1.42866
1.42854
1.42838
1.42818
1.42793
1.42762
1.42724
1.42677
1.4262
1.4255
1.42465
1.42362
1.42236
1.42085
1.41902
1.41682
1.41419
1.41106
1.40736
1.40303
1.39801
1.39223
1.38569
1.37837
1.37031
1.36157
1.35227
1.34256
1.33264
1.32273
1.31306
1.30387
1.29538
1.28777
1.28116
1.27561
1.27112
1.26761
1.26497
1.26305
1.26168
1.2607
1.42899
1.42898
1.42896
1.42893
1.42888
1.42882
1.42873
1.42861
1.42845
1.42826
1.42801
1.42771
1.42733
1.42687
1.42631
1.42562
1.42478
1.42376
1.42252
1.42103
1.41922
1.41704
1.41442
1.41131
1.40763
1.40331
1.39828
1.3925
1.38594
1.37858
1.37045
1.36163
1.35223
1.34239
1.33233
1.32226
1.31242
1.30307
1.29444
1.2867
1.28
1.27441
1.26992
1.26648
1.26394
1.26215
1.26091
1.26007
1.42904
1.42903
1.42901
1.42899
1.42894
1.42888
1.4288
1.42868
1.42853
1.42834
1.4281
1.4278
1.42744
1.42698
1.42643
1.42576
1.42493
1.42393
1.42271
1.42123
1.41944
1.41728
1.41469
1.4116
1.40793
1.40362
1.3986
1.39281
1.38621
1.37881
1.37062
1.36171
1.35219
1.34221
1.33199
1.32174
1.31172
1.30218
1.29338
1.2855
1.2787
1.27306
1.26859
1.26522
1.26281
1.26117
1.26011
1.25942
1.42909
1.42908
1.42907
1.42905
1.42901
1.42896
1.42888
1.42877
1.42862
1.42844
1.4282
1.42791
1.42755
1.42711
1.42657
1.4259
1.42509
1.42411
1.42291
1.42145
1.41968
1.41755
1.41498
1.41191
1.40826
1.40396
1.39894
1.39313
1.38651
1.37906
1.3708
1.3618
1.35215
1.34202
1.33162
1.32117
1.31095
1.30122
1.29223
1.28419
1.27729
1.2716
1.26715
1.26387
1.2616
1.26016
1.25929
1.25878
1.42914
1.42914
1.42913
1.42911
1.42908
1.42903
1.42896
1.42885
1.42871
1.42853
1.42831
1.42802
1.42767
1.42724
1.42671
1.42606
1.42526
1.4243
1.42312
1.42168
1.41993
1.41782
1.41528
1.41223
1.4086
1.40431
1.39929
1.39348
1.38683
1.37934
1.371
1.36189
1.35211
1.34183
1.33124
1.3206
1.31016
1.30021
1.29102
1.28282
1.2758
1.27005
1.26562
1.26244
1.26035
1.25912
1.25848
1.25816
1.42919
1.42919
1.42918
1.42917
1.42915
1.4291
1.42904
1.42894
1.4288
1.42863
1.42841
1.42813
1.42779
1.42737
1.42685
1.42621
1.42543
1.42448
1.42332
1.42191
1.42019
1.4181
1.41558
1.41256
1.40895
1.40468
1.39966
1.39384
1.38717
1.37962
1.37121
1.362
1.35209
1.34164
1.33087
1.32002
1.30936
1.29919
1.2898
1.28142
1.27427
1.26846
1.26405
1.26097
1.25908
1.2581
1.25771
1.2576
1.42924
1.42924
1.42923
1.42923
1.42921
1.42917
1.42911
1.42902
1.42889
1.42872
1.4285
1.42823
1.4279
1.42749
1.42698
1.42636
1.42559
1.42466
1.42352
1.42213
1.42043
1.41837
1.41588
1.41288
1.40929
1.40504
1.40003
1.3942
1.3875
1.37991
1.37143
1.36212
1.35208
1.34147
1.33051
1.31945
1.30858
1.29819
1.28859
1.28003
1.27274
1.26686
1.26246
1.2595
1.25781
1.25711
1.257
1.2571
1.42928
1.42928
1.42928
1.42927
1.42927
1.42924
1.42918
1.42909
1.42897
1.4288
1.42859
1.42833
1.428
1.4276
1.4271
1.42649
1.42574
1.42483
1.4237
1.42233
1.42066
1.41863
1.41616
1.41319
1.40962
1.40538
1.40038
1.39455
1.38783
1.38019
1.37165
1.36224
1.35208
1.34132
1.33018
1.31892
1.30783
1.29723
1.28742
1.27868
1.27125
1.2653
1.2609
1.25805
1.25657
1.25618
1.25636
1.25668
1.42931
1.42931
1.42931
1.42932
1.42932
1.4293
1.42924
1.42916
1.42904
1.42888
1.42867
1.42841
1.42809
1.42769
1.42721
1.42661
1.42587
1.42497
1.42387
1.42252
1.42087
1.41886
1.41642
1.41346
1.40992
1.4057
1.40071
1.39487
1.38813
1.38047
1.37187
1.36237
1.35209
1.3412
1.32988
1.31844
1.30714
1.29633
1.28632
1.27741
1.26984
1.2638
1.2594
1.25664
1.25539
1.25532
1.25581
1.25632
1.42933
1.42934
1.42934
1.42935
1.42936
1.42935
1.4293
1.42922
1.4291
1.42894
1.42874
1.42848
1.42817
1.42778
1.4273
1.42671
1.42599
1.4251
1.42402
1.42268
1.42105
1.41906
1.41664
1.41371
1.41019
1.40599
1.40101
1.39517
1.38842
1.38072
1.37208
1.3625
1.35212
1.3411
1.32962
1.31801
1.30652
1.2955
1.28531
1.27623
1.26852
1.26239
1.25798
1.2553
1.25428
1.25455
1.25535
1.25604
1.42935
1.42936
1.42936
1.42938
1.4294
1.42939
1.42935
1.42926
1.42915
1.42899
1.42879
1.42854
1.42823
1.42785
1.42738
1.4268
1.42609
1.42522
1.42414
1.42283
1.42121
1.41924
1.41684
1.41393
1.41043
1.40624
1.40127
1.39544
1.38867
1.38095
1.37227
1.36262
1.35215
1.34103
1.3294
1.31764
1.30597
1.29477
1.2844
1.27516
1.26732
1.2611
1.25666
1.25405
1.25324
1.25388
1.25497
1.25581
1.42937
1.42937
1.42938
1.4294
1.42943
1.42943
1.42938
1.42931
1.42919
1.42904
1.42884
1.42859
1.42829
1.42791
1.42745
1.42687
1.42617
1.42531
1.42425
1.42295
1.42135
1.41939
1.41701
1.41412
1.41064
1.40646
1.4015
1.39568
1.38889
1.38116
1.37244
1.36274
1.35218
1.34097
1.32922
1.31732
1.3055
1.29414
1.28361
1.27421
1.26624
1.25994
1.25546
1.25291
1.25229
1.25331
1.25468
1.25563
1.42938
1.42938
1.42939
1.42942
1.42945
1.42946
1.42942
1.42934
1.42922
1.42907
1.42888
1.42864
1.42833
1.42796
1.4275
1.42694
1.42624
1.42539
1.42434
1.42305
1.42146
1.41952
1.41716
1.41428
1.41081
1.40665
1.4017
1.39588
1.38909
1.38134
1.3726
1.36284
1.35222
1.34094
1.32906
1.31706
1.3051
1.29359
1.28292
1.27339
1.2653
1.2589
1.25439
1.25187
1.25143
1.25283
1.25446
1.25548
1.42939
1.42939
1.4294
1.42943
1.42948
1.42948
1.42944
1.42937
1.42925
1.4291
1.42891
1.42867
1.42837
1.428
1.42755
1.42699
1.4263
1.42545
1.42441
1.42313
1.42156
1.41963
1.41728
1.41442
1.41096
1.40681
1.40187
1.39605
1.38926
1.3815
1.37274
1.36294
1.35226
1.34092
1.32894
1.31685
1.30476
1.29313
1.28233
1.27268
1.26449
1.25801
1.25345
1.25094
1.25067
1.25246
1.2543
1.25536
1.42939
1.42939
1.4294
1.42944
1.42949
1.4295
1.42946
1.42939
1.42927
1.42913
1.42894
1.4287
1.4284
1.42803
1.42758
1.42703
1.42634
1.4255
1.42447
1.4232
1.42164
1.41972
1.41738
1.41453
1.41108
1.40694
1.40202
1.3962
1.3894
1.38164
1.37286
1.36303
1.3523
1.34091
1.32884
1.31668
1.30448
1.29274
1.28184
1.27209
1.2638
1.25724
1.25265
1.25015
1.25002
1.25219
1.25422
1.2553
1.4294
1.4294
1.42941
1.42944
1.42951
1.42952
1.42948
1.4294
1.42929
1.42914
1.42896
1.42872
1.42842
1.42806
1.42761
1.42706
1.42638
1.42555
1.42452
1.42325
1.4217
1.41979
1.41746
1.41462
1.41118
1.40705
1.40213
1.39632
1.38951
1.38175
1.37296
1.3631
1.35234
1.34091
1.32877
1.31657
1.30427
1.29245
1.28146
1.27162
1.26325
1.25663
1.25199
1.24948
1.24947
1.25201
1.25421
1.25528
1.4294
1.4294
1.42941
1.42945
1.42952
1.42953
1.4295
1.42942
1.42931
1.42916
1.42897
1.42873
1.42844
1.42808
1.42763
1.42708
1.4264
1.42557
1.42454
1.42328
1.42172
1.41982
1.41749
1.41465
1.41122
1.40709
1.40217
1.39637
1.38955
1.38178
1.37298
1.3631
1.3523
1.34085
1.32864
1.31639
1.30403
1.29214
1.28109
1.27118
1.26275
1.25607
1.25139
1.24881
1.24881
1.25163
1.25386
1.25482
1.42941
1.4294
1.42941
1.42945
1.42953
1.42955
1.42951
1.42943
1.42932
1.42917
1.42898
1.42874
1.42844
1.42807
1.42762
1.42707
1.42639
1.42555
1.42452
1.42326
1.4217
1.4198
1.41747
1.41463
1.41119
1.40706
1.40213
1.39631
1.38948
1.38169
1.37286
1.36295
1.3521
1.3406
1.32831
1.31602
1.30358
1.29161
1.28047
1.27044
1.26186
1.255
1.2501
1.24726
1.2471
1.25004
1.25217
1.25295
1.42941
1.42941
1.42941
1.42946
1.42954
1.42955
1.42951
1.42943
1.42932
1.42916
1.42897
1.42872
1.42842
1.42805
1.42759
1.42704
1.42636
1.42552
1.42449
1.42322
1.42167
1.41975
1.41742
1.41457
1.41112
1.40697
1.40202
1.39618
1.3893
1.38147
1.3726
1.36263
1.35173
1.34018
1.32779
1.31541
1.30281
1.29067
1.27931
1.26902
1.26017
1.25302
1.24785
1.24478
1.24447
1.24749
1.2495
1.25011
1.42941
1.42941
1.42941
1.42945
1.42954
1.42955
1.4295
1.42942
1.42929
1.42913
1.42893
1.42869
1.42838
1.42801
1.42756
1.42701
1.42632
1.42548
1.42445
1.42317
1.4216
1.41968
1.41733
1.41446
1.41099
1.40681
1.40182
1.39594
1.38901
1.3811
1.37214
1.36207
1.35108
1.33943
1.3269
1.31435
1.3015
1.28911
1.27748
1.26694
1.25789
1.25059
1.24527
1.24204
1.24164
1.24476
1.24669
1.24719
1.42941
1.42941
1.4294
1.42945
1.42953
1.42953
1.42947
1.42938
1.42926
1.4291
1.4289
1.42866
1.42836
1.42799
1.42753
1.42697
1.42628
1.42543
1.42439
1.4231
1.42151
1.41957
1.41719
1.4143
1.41079
1.40656
1.40153
1.39558
1.38858
1.3806
1.37152
1.36128
1.35011
1.33829
1.32559
1.31287
1.29981
1.28724
1.27545
1.26474
1.25553
1.24806
1.24261
1.23929
1.23887
1.24214
1.24405
1.24449
1.42941
1.42941
1.42939
1.42943
1.4295
1.4295
1.42944
1.42935
1.42923
1.42908
1.42888
1.42863
1.42833
1.42796
1.4275
1.42693
1.42623
1.42537
1.42431
1.42301
1.4214
1.41943
1.41703
1.41409
1.41054
1.40626
1.40116
1.39514
1.38805
1.37998
1.37081
1.36043
1.34904
1.33702
1.32412
1.31124
1.29801
1.28525
1.27332
1.26251
1.25315
1.24553
1.23995
1.23655
1.23617
1.23965
1.2416
1.24206
1.42942
1.4294
1.42938
1.4294
1.42947
1.42947
1.42942
1.42933
1.42922
1.42906
1.42886
1.42862
1.42831
1.42793
1.42746
1.42689
1.42618
1.4253
1.42423
1.42291
1.42128
1.41928
1.41684
1.41386
1.41026
1.40592
1.40075
1.39465
1.38746
1.37928
1.37002
1.35954
1.34799
1.33575
1.32262
1.30959
1.29623
1.28334
1.2713
1.26038
1.25093
1.24323
1.23759
1.23414
1.2338
1.23746
1.2395
1.24001
1.42942
1.42939
1.42935
1.42937
1.42944
1.42945
1.42941
1.42933
1.42921
1.42905
1.42885
1.4286
1.42829
1.4279
1.42743
1.42684
1.42612
1.42524
1.42415
1.4228
1.42115
1.41913
1.41665
1.41364
1.40998
1.40559
1.40034
1.39415
1.38686
1.37857
1.36917
1.35859
1.34694
1.3345
1.32114
1.30794
1.29448
1.28153
1.2694
1.25841
1.2489
1.24115
1.23546
1.232
1.23174
1.23563
1.23782
1.23844
1.42943
1.42937
1.42932
1.42935
1.42944
1.42945
1.42941
1.42932
1.4292
1.42905
1.42884
1.42859
1.42827
1.42788
1.4274
1.4268
1.42607
1.42517
1.42407
1.42271
1.42104
1.41898
1.41647
1.41342
1.40972
1.40527
1.39996
1.39369
1.3863
1.37789
1.36836
1.35764
1.34592
1.33335
1.31978
1.30641
1.29283
1.27981
1.26761
1.25656
1.24705
1.23933
1.23369
1.23028
1.23015
1.23426
1.2366
1.23734
1.42944
1.42935
1.4293
1.42934
1.42944
1.42945
1.42941
1.42932
1.4292
1.42904
1.42883
1.42857
1.42825
1.42785
1.42737
1.42677
1.42603
1.42512
1.424
1.42262
1.42093
1.41886
1.41632
1.41323
1.40949
1.40499
1.39962
1.39328
1.38581
1.3773
1.36765
1.3568
1.34497
1.33239
1.31869
1.30514
1.29144
1.27836
1.26613
1.25506
1.24554
1.23785
1.23229
1.22898
1.22901
1.23335
1.23584
1.23667
1.42944
1.42934
1.4293
1.42934
1.42944
1.42945
1.42941
1.42932
1.4292
1.42903
1.42882
1.42856
1.42824
1.42783
1.42734
1.42673
1.42599
1.42507
1.42394
1.42255
1.42084
1.41875
1.41619
1.41307
1.40929
1.40475
1.39933
1.39293
1.38539
1.37681
1.36707
1.35611
1.34418
1.33159
1.31791
1.30428
1.29047
1.27731
1.26502
1.25393
1.2444
1.23675
1.23127
1.22806
1.22822
1.23275
1.23536
1.23624
1.42944
1.42933
1.4293
1.42934
1.42944
1.42945
1.4294
1.42932
1.42919
1.42903
1.42881
1.42855
1.42822
1.42782
1.42732
1.42671
1.42596
1.42503
1.42389
1.42249
1.42077
1.41866
1.41607
1.41293
1.40913
1.40455
1.39909
1.39264
1.38504
1.3764
1.36659
1.35555
1.34353
1.33088
1.31728
1.3037
1.28983
1.27659
1.26424
1.2531
1.24358
1.23595
1.23052
1.2274
1.22767
1.23235
1.23504
1.23591
1.42944
1.42933
1.4293
1.42934
1.42944
1.42945
1.4294
1.42931
1.42919
1.42902
1.42881
1.42854
1.42821
1.42781
1.4273
1.42669
1.42593
1.425
1.42385
1.42244
1.42071
1.41858
1.41598
1.41282
1.40899
1.40438
1.39888
1.39239
1.38475
1.37605
1.36619
1.35509
1.343
1.33026
1.31663
1.3031
1.28924
1.27599
1.2636
1.25243
1.24289
1.23528
1.22989
1.22686
1.22725
1.23208
1.23482
1.23561
1.42944
1.42934
1.4293
1.42935
1.42944
1.42945
1.4294
1.42931
1.42919
1.42902
1.42881
1.42854
1.42821
1.4278
1.4273
1.42668
1.42591
1.42498
1.42382
1.42241
1.42066
1.41852
1.41591
1.41272
1.40887
1.40423
1.3987
1.39218
1.38449
1.37575
1.36584
1.35469
1.34253
1.32969
1.31594
1.30235
1.28848
1.27523
1.26285
1.25166
1.24213
1.23454
1.22922
1.22629
1.22686
1.23182
1.23459
1.23526
1.42944
1.42934
1.4293
1.42935
1.42944
1.42945
1.4294
1.42931
1.42919
1.42902
1.42881
1.42854
1.42821
1.4278
1.42729
1.42667
1.42591
1.42497
1.42381
1.42239
1.42064
1.41849
1.41586
1.41266
1.40879
1.40413
1.39857
1.39201
1.38429
1.3755
1.36554
1.35433
1.34211
1.32916
1.31526
1.30154
1.28755
1.27421
1.26177
1.25057
1.24106
1.23356
1.22836
1.22559
1.22638
1.23148
1.23426
1.2347
1.42944
1.42934
1.4293
1.42935
1.42944
1.42945
1.4294
1.42931
1.42919
1.42902
1.42881
1.42854
1.42821
1.4278
1.42729
1.42667
1.42591
1.42497
1.42381
1.42238
1.42063
1.41848
1.41585
1.41264
1.40876
1.40409
1.39851
1.39193
1.38418
1.37536
1.36535
1.3541
1.34182
1.32878
1.31476
1.30089
1.28674
1.27327
1.26071
1.24947
1.24
1.23259
1.22751
1.22492
1.22591
1.23112
1.23389
1.23395
1.42944
1.42934
1.4293
1.42935
1.42944
1.42945
1.4294
1.42931
1.42919
1.42902
1.42881
1.42854
1.42821
1.4278
1.42729
1.42667
1.42591
1.42497
1.42381
1.42239
1.42063
1.41848
1.41585
1.41264
1.40876
1.40408
1.39851
1.39192
1.38416
1.37533
1.3653
1.35404
1.34173
1.32866
1.31458
1.30062
1.28638
1.27283
1.2602
1.24891
1.23945
1.23208
1.22706
1.22456
1.22566
1.23093
1.23368
1.23345
1.19608
1.19608
1.19608
1.19608
1.19608
1.19608
1.19608
1.19608
1.19608
1.19607
1.19607
1.19607
1.19606
1.19604
1.196
1.19603
1.19605
1.19605
1.19606
1.19606
1.19605
1.19604
1.19603
1.19601
1.19598
1.19595
1.19592
1.19588
1.19583
1.19575
1.19609
1.19608
1.19608
1.19608
1.19608
1.19608
1.19608
1.19608
1.19608
1.19607
1.19607
1.19607
1.19606
1.19604
1.196
1.19603
1.19605
1.19605
1.19606
1.19606
1.19605
1.19604
1.19603
1.19601
1.19599
1.19595
1.19592
1.19588
1.19584
1.19579
1.19609
1.19608
1.19608
1.19608
1.19608
1.19608
1.19608
1.19608
1.19608
1.19607
1.19607
1.19607
1.19606
1.19605
1.196
1.19603
1.19605
1.19605
1.19606
1.19606
1.19605
1.19604
1.19603
1.19601
1.19599
1.19596
1.19592
1.19589
1.19585
1.19581
1.19609
1.19608
1.19608
1.19608
1.19608
1.19608
1.19608
1.19608
1.19608
1.19607
1.19607
1.19607
1.19606
1.19605
1.196
1.19603
1.19605
1.19605
1.19606
1.19606
1.19605
1.19604
1.19603
1.19601
1.19599
1.19596
1.19593
1.19589
1.19586
1.19583
1.19609
1.19608
1.19608
1.19608
1.19608
1.19608
1.19608
1.19608
1.19608
1.19608
1.19607
1.19607
1.19607
1.19605
1.196
1.19603
1.19605
1.19605
1.19606
1.19606
1.19605
1.19604
1.19603
1.19601
1.19599
1.19596
1.19593
1.1959
1.19587
1.19584
1.19609
1.19608
1.19608
1.19608
1.19608
1.19608
1.19608
1.19608
1.19608
1.19608
1.19607
1.19607
1.19607
1.19605
1.196
1.19603
1.19605
1.19605
1.19606
1.19606
1.19605
1.19604
1.19603
1.19601
1.19599
1.19597
1.19594
1.19591
1.19587
1.19584
1.19609
1.19608
1.19608
1.19608
1.19608
1.19608
1.19608
1.19608
1.19608
1.19608
1.19608
1.19607
1.19607
1.19605
1.196
1.19603
1.19605
1.19606
1.19606
1.19606
1.19605
1.19604
1.19603
1.19601
1.19599
1.19597
1.19594
1.19591
1.19587
1.19585
1.1961
1.19609
1.19608
1.19608
1.19608
1.19608
1.19608
1.19608
1.19608
1.19608
1.19608
1.19608
1.19607
1.19606
1.19601
1.19603
1.19605
1.19606
1.19606
1.19606
1.19605
1.19604
1.19603
1.19602
1.19599
1.19597
1.19594
1.19591
1.19588
1.19585
1.1961
1.19609
1.19609
1.19609
1.19609
1.19608
1.19608
1.19608
1.19608
1.19608
1.19608
1.19608
1.19608
1.19606
1.19601
1.19603
1.19605
1.19606
1.19606
1.19606
1.19605
1.19604
1.19603
1.19602
1.196
1.19597
1.19594
1.19591
1.19588
1.19585
1.1961
1.19609
1.19609
1.19609
1.19609
1.19609
1.19609
1.19609
1.19609
1.19608
1.19608
1.19608
1.19608
1.19607
1.19601
1.19603
1.19605
1.19606
1.19606
1.19606
1.19605
1.19604
1.19603
1.19602
1.196
1.19597
1.19594
1.19591
1.19588
1.19586
1.1961
1.19609
1.19609
1.19609
1.19609
1.19609
1.19609
1.19609
1.19609
1.19609
1.19609
1.19608
1.19608
1.19607
1.19602
1.19603
1.19605
1.19606
1.19606
1.19606
1.19605
1.19604
1.19603
1.19602
1.196
1.19597
1.19594
1.19591
1.19588
1.19586
1.1961
1.19609
1.19609
1.19609
1.19609
1.19609
1.19609
1.19609
1.19609
1.19609
1.19609
1.19609
1.19609
1.19607
1.19602
1.19604
1.19605
1.19606
1.19606
1.19606
1.19605
1.19604
1.19603
1.19602
1.19599
1.19597
1.19594
1.19591
1.19589
1.19586
1.1961
1.19609
1.19609
1.1961
1.1961
1.1961
1.1961
1.1961
1.1961
1.1961
1.19609
1.19609
1.19609
1.19608
1.19603
1.19604
1.19606
1.19606
1.19606
1.19606
1.19605
1.19604
1.19603
1.19601
1.19599
1.19597
1.19594
1.19592
1.19589
1.19587
1.1961
1.1961
1.1961
1.1961
1.1961
1.1961
1.1961
1.1961
1.1961
1.1961
1.1961
1.19609
1.19609
1.19608
1.19604
1.19605
1.19606
1.19606
1.19606
1.19606
1.19605
1.19604
1.19603
1.19601
1.19599
1.19597
1.19594
1.19592
1.19589
1.19587
1.1961
1.1961
1.1961
1.1961
1.1961
1.1961
1.1961
1.1961
1.1961
1.1961
1.1961
1.1961
1.19609
1.19608
1.19604
1.19605
1.19606
1.19607
1.19607
1.19606
1.19605
1.19604
1.19603
1.19602
1.196
1.19597
1.19595
1.19592
1.1959
1.19588
1.1961
1.1961
1.1961
1.1961
1.1961
1.1961
1.1961
1.1961
1.1961
1.1961
1.1961
1.1961
1.19609
1.19608
1.19605
1.19605
1.19607
1.19607
1.19607
1.19606
1.19606
1.19605
1.19603
1.19602
1.196
1.19598
1.19595
1.19593
1.19591
1.19589
1.1961
1.1961
1.1961
1.1961
1.1961
1.1961
1.1961
1.1961
1.1961
1.1961
1.1961
1.1961
1.19609
1.19608
1.19605
1.19606
1.19607
1.19607
1.19607
1.19607
1.19606
1.19605
1.19604
1.19602
1.196
1.19598
1.19596
1.19594
1.19592
1.1959
1.1961
1.1961
1.1961
1.1961
1.1961
1.1961
1.1961
1.1961
1.1961
1.1961
1.1961
1.1961
1.19609
1.19608
1.19605
1.19606
1.19607
1.19608
1.19608
1.19607
1.19606
1.19605
1.19604
1.19603
1.19601
1.19599
1.19597
1.19595
1.19593
1.19592
1.1961
1.1961
1.1961
1.1961
1.1961
1.1961
1.1961
1.1961
1.1961
1.1961
1.1961
1.1961
1.19609
1.19608
1.19606
1.19606
1.19607
1.19608
1.19608
1.19607
1.19607
1.19606
1.19605
1.19603
1.19601
1.196
1.19598
1.19596
1.19594
1.19593
1.1961
1.1961
1.1961
1.1961
1.1961
1.1961
1.1961
1.1961
1.1961
1.1961
1.1961
1.1961
1.19609
1.19608
1.19606
1.19606
1.19607
1.19608
1.19608
1.19608
1.19607
1.19606
1.19605
1.19604
1.19602
1.196
1.19599
1.19597
1.19596
1.19595
1.1961
1.1961
1.1961
1.1961
1.1961
1.1961
1.1961
1.1961
1.1961
1.1961
1.1961
1.19609
1.19609
1.19608
1.19606
1.19606
1.19608
1.19608
1.19608
1.19608
1.19607
1.19606
1.19605
1.19604
1.19603
1.19601
1.196
1.19599
1.19597
1.19597
1.1961
1.1961
1.1961
1.1961
1.1961
1.1961
1.1961
1.1961
1.1961
1.1961
1.1961
1.19609
1.19609
1.19608
1.19607
1.19607
1.19608
1.19608
1.19608
1.19608
1.19607
1.19607
1.19606
1.19605
1.19603
1.19602
1.19601
1.196
1.19599
1.19598
1.1961
1.1961
1.1961
1.1961
1.1961
1.1961
1.1961
1.1961
1.1961
1.1961
1.1961
1.19609
1.19609
1.19608
1.19607
1.19607
1.19608
1.19608
1.19608
1.19608
1.19608
1.19607
1.19606
1.19605
1.19604
1.19603
1.19602
1.19601
1.196
1.196
1.1961
1.1961
1.1961
1.1961
1.1961
1.1961
1.1961
1.1961
1.1961
1.1961
1.1961
1.19609
1.19609
1.19608
1.19607
1.19607
1.19608
1.19608
1.19608
1.19608
1.19608
1.19607
1.19606
1.19606
1.19605
1.19604
1.19603
1.19602
1.19602
1.19601
1.1961
1.1961
1.1961
1.1961
1.1961
1.1961
1.1961
1.1961
1.1961
1.1961
1.1961
1.19609
1.19609
1.19608
1.19608
1.19607
1.19608
1.19608
1.19608
1.19608
1.19608
1.19607
1.19607
1.19606
1.19605
1.19604
1.19604
1.19603
1.19603
1.19602
1.19609
1.1961
1.1961
1.1961
1.1961
1.1961
1.1961
1.1961
1.1961
1.1961
1.19609
1.19609
1.19609
1.19609
1.19608
1.19608
1.19608
1.19608
1.19608
1.19608
1.19608
1.19607
1.19607
1.19606
1.19606
1.19605
1.19605
1.19604
1.19604
1.19603
1.19609
1.1961
1.1961
1.1961
1.1961
1.1961
1.1961
1.1961
1.1961
1.1961
1.19609
1.19609
1.19609
1.19609
1.19608
1.19608
1.19608
1.19608
1.19608
1.19608
1.19608
1.19608
1.19607
1.19607
1.19606
1.19606
1.19605
1.19605
1.19605
1.19604
1.19609
1.1961
1.1961
1.1961
1.1961
1.1961
1.1961
1.1961
1.1961
1.1961
1.19609
1.19609
1.19609
1.19609
1.19608
1.19608
1.19608
1.19608
1.19608
1.19608
1.19608
1.19608
1.19607
1.19607
1.19607
1.19606
1.19606
1.19606
1.19605
1.19605
1.19609
1.1961
1.1961
1.1961
1.1961
1.1961
1.1961
1.1961
1.1961
1.19609
1.19609
1.19609
1.19609
1.19609
1.19609
1.19608
1.19608
1.19608
1.19608
1.19608
1.19608
1.19608
1.19608
1.19607
1.19607
1.19607
1.19606
1.19606
1.19606
1.19606
1.19609
1.1961
1.1961
1.1961
1.1961
1.1961
1.1961
1.1961
1.1961
1.19609
1.19609
1.19609
1.19609
1.19609
1.19609
1.19609
1.19608
1.19608
1.19608
1.19608
1.19608
1.19608
1.19608
1.19608
1.19607
1.19607
1.19607
1.19607
1.19607
1.19607
1.1961
1.1961
1.1961
1.1961
1.1961
1.1961
1.1961
1.1961
1.1961
1.19609
1.19609
1.19609
1.19609
1.19609
1.19609
1.19609
1.19609
1.19609
1.19609
1.19609
1.19608
1.19608
1.19608
1.19608
1.19608
1.19608
1.19607
1.19607
1.19607
1.19607
1.1961
1.1961
1.1961
1.1961
1.1961
1.1961
1.1961
1.1961
1.1961
1.1961
1.19609
1.19609
1.19609
1.19609
1.19609
1.19609
1.19609
1.19609
1.19609
1.19609
1.19609
1.19608
1.19608
1.19608
1.19608
1.19608
1.19608
1.19608
1.19608
1.19608
1.1961
1.1961
1.1961
1.1961
1.1961
1.1961
1.1961
1.1961
1.1961
1.1961
1.1961
1.1961
1.19609
1.19609
1.19609
1.19609
1.19609
1.19609
1.19609
1.19609
1.19609
1.19609
1.19609
1.19608
1.19608
1.19608
1.19608
1.19608
1.19608
1.19608
1.1961
1.1961
1.1961
1.1961
1.1961
1.1961
1.1961
1.1961
1.1961
1.1961
1.1961
1.1961
1.1961
1.1961
1.1961
1.19609
1.19609
1.19609
1.19609
1.19609
1.19609
1.19609
1.19609
1.19609
1.19609
1.19609
1.19609
1.19609
1.19609
1.19609
1.1961
1.1961
1.1961
1.1961
1.1961
1.1961
1.1961
1.1961
1.1961
1.1961
1.1961
1.1961
1.1961
1.1961
1.1961
1.1961
1.1961
1.1961
1.19609
1.19609
1.19609
1.19609
1.19609
1.19609
1.19609
1.19609
1.19609
1.19609
1.19609
1.19609
1.1961
1.1961
1.1961
1.1961
1.1961
1.1961
1.1961
1.1961
1.1961
1.1961
1.1961
1.1961
1.1961
1.1961
1.1961
1.1961
1.1961
1.1961
1.1961
1.1961
1.1961
1.1961
1.19609
1.19609
1.19609
1.19609
1.19609
1.19609
1.19609
1.19609
1.1961
1.1961
1.1961
1.1961
1.1961
1.1961
1.1961
1.1961
1.1961
1.1961
1.1961
1.1961
1.1961
1.1961
1.1961
1.1961
1.1961
1.1961
1.1961
1.1961
1.1961
1.1961
1.1961
1.1961
1.1961
1.1961
1.1961
1.1961
1.1961
1.1961
1.1961
1.1961
1.1961
1.1961
1.1961
1.1961
1.1961
1.1961
1.1961
1.1961
1.1961
1.1961
1.19611
1.19611
1.1961
1.1961
1.1961
1.1961
1.1961
1.1961
1.1961
1.1961
1.1961
1.1961
1.1961
1.1961
1.1961
1.1961
1.1961
1.1961
1.19611
1.19611
1.19611
1.19611
1.19611
1.19611
1.19611
1.19611
1.19611
1.19611
1.19611
1.19611
1.19611
1.19611
1.19611
1.19611
1.19611
1.19611
1.19611
1.19611
1.19611
1.19611
1.19611
1.1961
1.1961
1.1961
1.1961
1.1961
1.1961
1.1961
1.19611
1.19611
1.19611
1.19611
1.19611
1.19611
1.19611
1.19611
1.19611
1.19611
1.19611
1.19611
1.19611
1.19611
1.19611
1.19611
1.19611
1.19611
1.19611
1.19611
1.19611
1.19611
1.19611
1.19611
1.19611
1.19611
1.19611
1.19611
1.19611
1.19611
1.19611
1.19611
1.19611
1.19611
1.19611
1.19611
1.19611
1.19611
1.19611
1.19611
1.19611
1.19611
1.19611
1.19611
1.19611
1.19611
1.19611
1.19611
1.19611
1.19611
1.19611
1.19611
1.19611
1.19611
1.19611
1.19611
1.19611
1.19611
1.19611
1.19611
1.19612
1.19612
1.19612
1.19612
1.19612
1.19612
1.19612
1.19612
1.19612
1.19612
1.19612
1.19612
1.19612
1.19612
1.19612
1.19612
1.19612
1.19612
1.19612
1.19612
1.19612
1.19612
1.19612
1.19612
1.19612
1.19612
1.19612
1.19612
1.19612
1.19612
1.19612
1.19612
1.19612
1.19612
1.19612
1.19612
1.19612
1.19612
1.19612
1.19612
1.19612
1.19612
1.19612
1.19612
1.19612
1.19612
1.19612
1.19612
1.19612
1.19612
1.19612
1.19612
1.19612
1.19612
1.19612
1.19612
1.19612
1.19612
1.19612
1.19612
1.19612
1.19612
1.19612
1.19612
1.19612
1.19612
1.19612
1.19612
1.19612
1.19612
1.19612
1.19612
1.19612
1.19612
1.19612
1.19612
1.19612
1.19612
1.19612
1.19612
1.19612
1.19612
1.19612
1.19612
1.19612
1.19612
1.19612
1.19612
1.19612
1.19612
1.19613
1.19613
1.19613
1.19613
1.19613
1.19613
1.19613
1.19613
1.19613
1.19613
1.19613
1.19613
1.19613
1.19613
1.19613
1.19613
1.19613
1.19613
1.19613
1.19613
1.19613
1.19613
1.19613
1.19613
1.19613
1.19613
1.19613
1.19613
1.19613
1.19613
1.19613
1.19613
1.19613
1.19613
1.19613
1.19613
1.19613
1.19613
1.19613
1.19613
1.19613
1.19613
1.19613
1.19613
1.19613
1.19613
1.19613
1.19613
1.19613
1.19613
1.19613
1.19613
1.19613
1.19613
1.19613
1.19613
1.19613
1.19613
1.19613
1.19613
1.19613
1.19613
1.19613
1.19613
1.19613
1.19613
1.19613
1.19613
1.19613
1.19613
1.19613
1.19613
1.19613
1.19613
1.19613
1.19613
1.19613
1.19613
1.19613
1.19613
1.19613
1.19613
1.19613
1.19613
1.19613
1.19613
1.19613
1.19613
1.19613
1.19613
1.19613
1.19613
1.19613
1.19613
1.19613