/*--------------------------------*- C++ -*----------------------------------*\
| =========                 |                                                 |
| \\      /  F ield         | OpenFOAM: The Open Source CFD Toolbox           |
|  \\    /   O peration     | Version:  2212                                  |
|   \\  /    A nd           | Website:  www.openfoam.com                      |
|    \\/     M anipulation  |                                                 |
\*---------------------------------------------------------------------------*/
FoamFile
{
    version     2.0;
    format      ascii;
    arch        "LSB;label=32;scalar=64";
    class       volScalarField;
    location    "10000";
    object      T;
}
// * * * * * * * * * * * * * * * * * * * * * * * * * * * * * * * * * * * * * //

dimensions      [0 0 0 1 0 0 0];

internalField   nonuniform List<scalar> 
18080
(
294.44
294.439
294.436
294.432
294.427
294.419
294.409
294.396
294.379
294.359
294.333
294.302
294.264
294.218
294.162
294.094
294.011
293.912
293.791
293.647
293.473
293.267
293.021
292.732
292.394
292.002
291.552
291.043
290.473
289.844
289.162
288.433
287.67
286.885
286.095
285.318
284.571
283.87
283.228
282.657
282.16
281.739
281.391
281.109
280.884
280.707
280.568
280.461
294.44
294.439
294.437
294.433
294.427
294.419
294.409
294.396
294.38
294.359
294.334
294.303
294.265
294.219
294.162
294.094
294.012
293.912
293.792
293.648
293.475
293.268
293.023
292.734
292.396
292.005
291.556
291.047
290.478
289.85
289.168
288.441
287.678
286.894
286.105
285.328
284.581
283.88
283.238
282.667
282.17
281.75
281.403
281.121
280.897
280.72
280.582
280.475
294.44
294.439
294.437
294.433
294.428
294.42
294.41
294.397
294.38
294.36
294.334
294.303
294.265
294.219
294.163
294.095
294.013
293.913
293.793
293.649
293.476
293.27
293.025
292.737
292.4
292.009
291.561
291.053
290.485
289.858
289.177
288.45
287.688
286.905
286.117
285.34
284.593
283.892
283.251
282.68
282.184
281.765
281.418
281.137
280.913
280.737
280.599
280.492
294.44
294.439
294.437
294.433
294.428
294.42
294.41
294.397
294.381
294.36
294.335
294.304
294.266
294.22
294.164
294.096
294.013
293.914
293.794
293.651
293.478
293.272
293.028
292.74
292.404
292.014
291.566
291.059
290.492
289.866
289.186
288.461
287.7
286.917
286.129
285.353
284.607
283.906
283.266
282.695
282.199
281.78
281.433
281.152
280.929
280.754
280.616
280.509
294.44
294.439
294.437
294.433
294.428
294.42
294.41
294.397
294.381
294.36
294.335
294.304
294.266
294.22
294.164
294.096
294.014
293.915
293.796
293.652
293.48
293.275
293.031
292.744
292.408
292.019
291.572
291.066
290.5
289.875
289.196
288.471
287.711
286.929
286.142
285.366
284.62
283.92
283.28
282.709
282.214
281.795
281.448
281.168
280.945
280.77
280.633
280.527
294.44
294.439
294.437
294.433
294.428
294.42
294.41
294.397
294.381
294.36
294.335
294.304
294.266
294.22
294.164
294.097
294.015
293.916
293.797
293.654
293.482
293.277
293.034
292.747
292.412
292.024
291.578
291.073
290.508
289.884
289.207
288.483
287.723
286.942
286.155
285.38
284.634
283.934
283.293
282.722
282.227
281.808
281.462
281.183
280.96
280.786
280.649
280.543
294.44
294.439
294.437
294.433
294.428
294.42
294.41
294.397
294.381
294.36
294.335
294.304
294.266
294.22
294.165
294.097
294.016
293.917
293.798
293.655
293.484
293.28
293.037
292.752
292.417
292.03
291.585
291.081
290.517
289.894
289.218
288.494
287.736
286.955
286.168
285.393
284.646
283.946
283.305
282.735
282.239
281.821
281.475
281.196
280.974
280.8
280.664
280.559
294.44
294.439
294.437
294.433
294.427
294.42
294.41
294.397
294.38
294.36
294.335
294.304
294.267
294.221
294.165
294.098
294.017
293.918
293.8
293.657
293.486
293.283
293.041
292.756
292.423
292.036
291.593
291.09
290.527
289.905
289.229
288.507
287.748
286.967
286.18
285.405
284.658
283.957
283.316
282.744
282.249
281.83
281.485
281.206
280.985
280.812
280.678
280.574
294.44
294.439
294.437
294.433
294.427
294.42
294.41
294.397
294.38
294.36
294.335
294.304
294.267
294.221
294.166
294.099
294.018
293.92
293.802
293.66
293.489
293.286
293.045
292.761
292.429
292.044
291.601
291.1
290.537
289.916
289.241
288.519
287.761
286.98
286.192
285.415
284.667
283.965
283.323
282.751
282.255
281.836
281.491
281.213
280.993
280.822
280.689
280.586
294.44
294.439
294.437
294.433
294.427
294.419
294.409
294.396
294.38
294.36
294.335
294.304
294.267
294.222
294.167
294.1
294.019
293.921
293.804
293.662
293.493
293.291
293.051
292.768
292.436
292.052
291.611
291.11
290.549
289.928
289.254
288.531
287.773
286.991
286.202
285.424
284.674
283.97
283.326
282.752
282.256
281.837
281.492
281.216
280.997
280.828
280.697
280.596
294.44
294.439
294.437
294.433
294.427
294.419
294.409
294.396
294.38
294.36
294.335
294.305
294.268
294.223
294.168
294.101
294.021
293.924
293.807
293.666
293.497
293.296
293.057
292.775
292.445
292.062
291.622
291.122
290.561
289.941
289.266
288.544
287.784
287.001
286.209
285.429
284.676
283.97
283.323
282.748
282.25
281.831
281.487
281.212
280.996
280.829
280.701
280.603
294.44
294.439
294.437
294.433
294.427
294.419
294.409
294.397
294.381
294.361
294.336
294.306
294.269
294.224
294.169
294.103
294.023
293.927
293.811
293.671
293.503
293.302
293.064
292.784
292.455
292.073
291.634
291.135
290.574
289.955
289.279
288.556
287.794
287.008
286.214
285.429
284.673
283.963
283.313
282.735
282.236
281.817
281.474
281.201
280.988
280.825
280.7
280.606
294.44
294.439
294.437
294.433
294.427
294.42
294.41
294.397
294.381
294.361
294.337
294.307
294.27
294.226
294.172
294.106
294.027
293.931
293.815
293.676
293.51
293.31
293.074
292.794
292.466
292.085
291.647
291.149
290.589
289.969
289.292
288.567
287.802
287.013
286.214
285.425
284.663
283.948
283.294
282.713
282.212
281.792
281.451
281.181
280.972
280.814
280.694
280.604
294.44
294.439
294.437
294.433
294.427
294.42
294.41
294.398
294.382
294.362
294.338
294.309
294.272
294.228
294.175
294.11
294.031
293.936
293.822
293.684
293.518
293.32
293.085
292.806
292.48
292.1
291.663
291.165
290.605
289.983
289.305
288.576
287.808
287.013
286.209
285.413
284.646
283.924
283.264
282.679
282.176
281.756
281.417
281.151
280.948
280.795
280.681
280.597
294.44
294.439
294.437
294.433
294.428
294.42
294.411
294.399
294.383
294.364
294.34
294.311
294.275
294.232
294.179
294.115
294.037
293.943
293.829
293.692
293.528
293.332
293.098
292.821
292.496
292.117
291.68
291.182
290.621
289.999
289.317
288.585
287.811
287.01
286.198
285.395
284.618
283.889
283.223
282.633
282.127
281.707
281.371
281.11
280.913
280.768
280.662
280.585
294.44
294.439
294.437
294.433
294.428
294.421
294.412
294.4
294.385
294.366
294.343
294.314
294.279
294.236
294.184
294.12
294.044
293.951
293.838
293.703
293.54
293.345
293.113
292.838
292.514
292.136
291.7
291.202
290.639
290.014
289.33
288.592
287.811
287.002
286.181
285.368
284.582
283.843
283.168
282.572
282.063
281.644
281.311
281.056
280.868
280.733
280.636
280.568
294.44
294.439
294.437
294.434
294.429
294.422
294.414
294.402
294.387
294.369
294.346
294.318
294.283
294.241
294.19
294.127
294.052
293.96
293.849
293.715
293.554
293.361
293.131
292.857
292.534
292.158
291.722
291.223
290.659
290.031
289.341
288.597
287.809
286.99
286.158
285.333
284.535
283.785
283.101
282.498
281.985
281.566
281.237
280.991
280.813
280.689
280.605
280.547
294.44
294.439
294.437
294.435
294.43
294.424
294.416
294.405
294.39
294.372
294.35
294.322
294.289
294.247
294.197
294.136
294.061
293.971
293.862
293.73
293.57
293.379
293.15
292.878
292.557
292.181
291.746
291.246
290.68
290.048
289.353
288.602
287.804
286.974
286.13
285.291
284.479
283.716
283.021
282.41
281.893
281.474
281.15
280.913
280.749
280.639
280.568
280.522
294.44
294.439
294.438
294.435
294.432
294.426
294.418
294.407
294.394
294.376
294.355
294.328
294.294
294.254
294.205
294.144
294.071
293.983
293.875
293.745
293.588
293.398
293.172
292.901
292.582
292.207
291.771
291.271
290.702
290.066
289.365
288.606
287.798
286.955
286.097
285.243
284.416
283.639
282.931
282.31
281.788
281.369
281.051
280.825
280.676
280.583
280.528
280.495
294.44
294.44
294.439
294.437
294.433
294.428
294.421
294.411
294.398
294.381
294.359
294.333
294.301
294.261
294.213
294.154
294.082
293.995
293.889
293.761
293.606
293.419
293.194
292.926
292.608
292.233
291.798
291.296
290.725
290.084
289.377
288.608
287.789
286.933
286.059
285.189
284.346
283.553
282.832
282.2
281.672
281.252
280.941
280.728
280.596
280.522
280.485
280.467
294.44
294.44
294.439
294.438
294.435
294.431
294.424
294.414
294.402
294.385
294.365
294.339
294.307
294.269
294.221
294.164
294.094
294.008
293.904
293.778
293.624
293.439
293.217
292.95
292.634
292.26
291.824
291.321
290.747
290.102
289.387
288.609
287.778
286.909
286.019
285.132
284.271
283.462
282.725
282.082
281.547
281.127
280.822
280.623
280.51
280.459
280.441
280.438
294.44
294.44
294.44
294.439
294.437
294.433
294.427
294.418
294.406
294.39
294.37
294.345
294.314
294.276
294.23
294.173
294.105
294.021
293.918
293.794
293.643
293.46
293.239
292.974
292.659
292.286
291.85
291.346
290.769
290.119
289.398
288.611
287.768
286.884
285.979
285.074
284.195
283.368
282.616
281.961
281.418
280.996
280.698
280.513
280.423
280.395
280.398
280.41
294.44
294.441
294.441
294.441
294.44
294.436
294.431
294.422
294.41
294.395
294.375
294.351
294.321
294.284
294.238
294.183
294.115
294.033
293.932
293.809
293.66
293.479
293.26
292.997
292.683
292.312
291.875
291.37
290.79
290.136
289.408
288.611
287.757
286.86
285.938
285.017
284.12
283.275
282.507
281.839
281.288
280.864
280.571
280.402
280.335
280.332
280.357
280.383
294.44
294.441
294.442
294.442
294.442
294.439
294.434
294.426
294.414
294.399
294.38
294.356
294.327
294.29
294.246
294.191
294.125
294.044
293.944
293.823
293.676
293.497
293.28
293.018
292.706
292.335
291.899
291.392
290.81
290.151
289.417
288.612
287.747
286.837
285.9
284.962
284.048
283.186
282.403
281.721
281.161
280.734
280.447
280.292
280.249
280.273
280.318
280.359
294.44
294.441
294.443
294.444
294.444
294.442
294.437
294.43
294.418
294.404
294.385
294.361
294.332
294.297
294.253
294.199
294.134
294.054
293.956
293.836
293.69
293.513
293.297
293.038
292.726
292.356
291.92
291.412
290.828
290.166
289.426
288.613
287.738
286.815
285.864
284.91
283.98
283.102
282.305
281.61
281.04
280.61
280.326
280.186
280.167
280.217
280.282
280.336
294.44
294.442
294.443
294.446
294.447
294.445
294.441
294.433
294.422
294.408
294.389
294.366
294.337
294.302
294.259
294.206
294.141
294.062
293.966
293.847
293.703
293.527
293.313
293.054
292.744
292.375
291.939
291.43
290.844
290.179
289.434
288.614
287.73
286.796
285.831
284.863
283.917
283.025
282.214
281.508
280.928
280.493
280.212
280.085
280.09
280.167
280.251
280.315
294.44
294.442
294.444
294.447
294.449
294.448
294.443
294.436
294.425
294.411
294.393
294.37
294.342
294.307
294.264
294.212
294.148
294.07
293.974
293.857
293.714
293.539
293.326
293.069
292.76
292.391
291.955
291.445
290.858
290.19
289.44
288.614
287.722
286.777
285.801
284.819
283.859
282.954
282.132
281.415
280.827
280.386
280.106
279.99
280.019
280.123
280.222
280.297
294.44
294.442
294.445
294.448
294.451
294.45
294.446
294.439
294.428
294.414
294.396
294.374
294.346
294.311
294.269
294.217
294.154
294.076
293.981
293.865
293.723
293.549
293.338
293.082
292.773
292.405
291.969
291.459
290.869
290.199
289.446
288.614
287.715
286.761
285.774
284.78
283.808
282.891
282.058
281.332
280.735
280.288
280.008
279.903
279.956
280.085
280.199
280.282
294.44
294.442
294.445
294.45
294.453
294.452
294.448
294.441
294.431
294.417
294.399
294.377
294.349
294.314
294.273
294.221
294.159
294.082
293.988
293.872
293.731
293.558
293.347
293.092
292.785
292.417
291.981
291.47
290.879
290.207
289.45
288.613
287.709
286.746
285.749
284.745
283.762
282.835
281.993
281.257
280.653
280.201
279.921
279.825
279.903
280.057
280.183
280.275
294.44
294.442
294.446
294.451
294.454
294.454
294.45
294.443
294.433
294.419
294.401
294.379
294.351
294.317
294.276
294.225
294.163
294.086
293.993
293.878
293.737
293.565
293.355
293.101
292.794
292.427
291.991
291.479
290.887
290.213
289.454
288.613
287.702
286.732
285.726
284.713
283.719
282.784
281.932
281.187
280.574
280.117
279.837
279.752
279.859
280.039
280.176
280.276
294.441
294.442
294.446
294.451
294.455
294.455
294.451
294.444
294.434
294.421
294.403
294.381
294.354
294.32
294.278
294.228
294.166
294.09
293.997
293.883
293.743
293.572
293.363
293.109
292.803
292.436
292.001
291.488
290.896
290.22
289.457
288.611
287.695
286.716
285.699
284.673
283.666
282.717
281.855
281.104
280.492
280.044
279.785
279.739
279.902
280.132
280.297
280.411
294.441
294.442
294.446
294.452
294.456
294.456
294.453
294.446
294.436
294.422
294.405
294.383
294.356
294.322
294.282
294.232
294.171
294.097
294.005
293.892
293.754
293.584
293.376
293.124
292.819
292.454
292.019
291.507
290.915
290.238
289.474
288.624
287.7
286.707
285.676
284.637
283.618
282.657
281.784
281.031
280.427
280.001
279.776
279.778
280.006
280.29
280.485
280.622
294.441
294.442
294.446
294.453
294.457
294.457
294.454
294.447
294.437
294.424
294.407
294.386
294.36
294.328
294.289
294.241
294.182
294.109
294.018
293.907
293.77
293.602
293.397
293.147
292.845
292.482
292.051
291.542
290.953
290.281
289.521
288.679
287.768
286.79
285.764
284.716
283.682
282.7
281.788
280.989
280.35
279.913
279.71
279.783
280.127
280.525
280.812
281.02
294.441
294.442
294.446
294.453
294.458
294.458
294.455
294.449
294.44
294.428
294.413
294.394
294.369
294.338
294.3
294.253
294.195
294.122
294.033
293.924
293.789
293.623
293.421
293.175
292.877
292.519
292.093
291.59
291.008
290.344
289.595
288.768
287.881
286.936
285.948
284.928
283.885
282.84
281.843
280.976
280.329
279.964
279.896
280.118
280.58
281.041
281.335
281.535
294.441
294.442
294.447
294.454
294.46
294.46
294.458
294.454
294.447
294.436
294.422
294.403
294.379
294.349
294.311
294.265
294.207
294.137
294.05
293.942
293.81
293.649
293.451
293.209
292.918
292.567
292.15
291.656
291.084
290.431
289.695
288.883
288.015
287.098
286.143
285.143
284.108
283.045
282.07
281.289
280.754
280.474
280.433
280.644
281.082
281.516
281.781
281.97
294.44
294.442
294.447
294.456
294.463
294.466
294.465
294.462
294.456
294.445
294.431
294.412
294.388
294.358
294.321
294.276
294.22
294.152
294.067
293.964
293.836
293.679
293.487
293.254
292.97
292.63
292.225
291.746
291.188
290.549
289.826
289.03
288.182
287.295
286.373
285.4
284.421
283.504
282.706
282.061
281.581
281.273
281.158
281.28
281.645
282.033
282.278
282.469
294.44
294.443
294.449
294.46
294.469
294.474
294.474
294.47
294.462
294.451
294.436
294.418
294.395
294.366
294.331
294.287
294.234
294.168
294.087
293.987
293.865
293.714
293.53
293.305
293.032
292.705
292.314
291.851
291.314
290.697
289.988
289.208
288.381
287.526
286.676
285.776
284.863
284.15
283.51
282.901
282.37
281.98
281.783
281.829
282.16
282.555
282.825
283.041
294.44
294.444
294.453
294.466
294.476
294.48
294.479
294.474
294.465
294.454
294.44
294.422
294.4
294.373
294.34
294.298
294.247
294.185
294.108
294.012
293.895
293.751
293.574
293.359
293.098
292.784
292.409
291.965
291.45
290.86
290.18
289.413
288.601
287.773
286.997
286.211
285.361
284.617
283.912
283.269
282.727
282.342
282.157
282.221
282.585
283.009
283.292
283.506
294.439
294.446
294.458
294.472
294.482
294.483
294.481
294.475
294.467
294.457
294.443
294.426
294.406
294.38
294.348
294.309
294.261
294.201
294.128
294.037
293.925
293.788
293.619
293.413
293.163
292.862
292.503
292.078
291.584
291.021
290.379
289.645
288.847
288.025
287.285
286.583
285.787
284.944
284.167
283.504
282.971
282.613
282.46
282.572
282.981
283.425
283.693
283.879
294.437
294.449
294.463
294.476
294.483
294.484
294.481
294.476
294.468
294.458
294.446
294.43
294.41
294.386
294.356
294.319
294.273
294.216
294.146
294.06
293.953
293.821
293.66
293.463
293.224
292.936
292.592
292.184
291.711
291.17
290.558
289.87
289.107
288.292
287.532
286.852
286.106
285.243
284.432
283.747
283.219
282.884
282.763
282.915
283.348
283.784
284.019
284.166
294.436
294.453
294.467
294.478
294.483
294.483
294.481
294.476
294.469
294.46
294.448
294.433
294.414
294.391
294.362
294.327
294.283
294.229
294.162
294.079
293.977
293.851
293.697
293.508
293.278
293.001
292.671
292.279
291.824
291.304
290.713
290.058
289.339
288.555
287.763
287.056
286.344
285.506
284.694
284.003
283.48
283.161
283.057
283.21
283.628
284.04
284.241
284.357
294.435
294.456
294.468
294.477
294.482
294.482
294.48
294.476
294.469
294.461
294.449
294.435
294.417
294.395
294.368
294.334
294.292
294.24
294.176
294.096
293.997
293.876
293.727
293.545
293.324
293.057
292.738
292.361
291.921
291.419
290.847
290.212
289.524
288.783
287.995
287.243
286.525
285.712
284.918
284.237
283.725
283.414
283.312
283.445
283.833
284.211
284.378
284.475
294.435
294.457
294.467
294.476
294.481
294.482
294.48
294.476
294.469
294.461
294.45
294.436
294.419
294.398
294.372
294.339
294.298
294.248
294.186
294.109
294.014
293.896
293.752
293.576
293.361
293.103
292.794
292.428
292.002
291.515
290.96
290.341
289.671
288.958
288.211
287.444
286.684
285.879
285.101
284.436
283.939
283.635
283.527
283.642
283.995
284.327
284.461
284.552
294.435
294.456
294.467
294.475
294.48
294.481
294.479
294.475
294.469
294.461
294.451
294.437
294.421
294.4
294.374
294.342
294.303
294.254
294.193
294.118
294.026
293.911
293.771
293.6
293.391
293.139
292.839
292.482
292.067
291.592
291.051
290.448
289.792
289.09
288.384
287.643
286.865
286.057
285.281
284.631
284.156
283.85
283.721
283.801
284.103
284.395
284.507
284.609
294.435
294.456
294.466
294.475
294.48
294.481
294.479
294.475
294.469
294.461
294.451
294.438
294.421
294.401
294.375
294.344
294.305
294.257
294.198
294.124
294.033
293.921
293.784
293.616
293.412
293.166
292.872
292.523
292.117
291.652
291.122
290.532
289.89
289.196
288.508
287.811
287.049
286.251
285.486
284.848
284.376
284.052
283.89
283.927
284.176
284.427
284.524
284.654
294.435
294.455
294.466
294.475
294.48
294.481
294.479
294.475
294.469
294.461
294.451
294.438
294.421
294.401
294.376
294.344
294.306
294.258
294.2
294.127
294.037
293.927
293.791
293.626
293.425
293.182
292.893
292.55
292.151
291.694
291.173
290.593
289.962
289.28
288.597
287.937
287.206
286.446
285.72
285.096
284.598
284.235
284.026
284.032
284.248
284.457
284.54
284.724
294.435
294.455
294.466
294.474
294.48
294.481
294.479
294.475
294.469
294.461
294.451
294.437
294.421
294.401
294.376
294.345
294.306
294.259
294.2
294.128
294.038
293.928
293.794
293.629
293.43
293.189
292.902
292.563
292.167
291.714
291.199
290.624
290
289.332
288.661
288.031
287.33
286.627
285.963
285.36
284.826
284.416
284.158
284.151
284.362
284.536
284.604
284.866
294.435
294.455
294.466
294.474
294.48
294.481
294.479
294.475
294.469
294.461
294.451
294.437
294.421
294.401
294.376
294.345
294.306
294.259
294.2
294.128
294.039
293.929
293.794
293.63
293.431
293.19
292.904
292.565
292.17
291.719
291.205
290.631
290.008
289.345
288.684
288.075
287.392
286.722
286.099
285.514
284.962
284.533
284.256
284.253
284.468
284.625
284.679
285.003
294.444
294.443
294.442
294.442
294.441
294.441
294.441
294.44
294.44
294.44
294.44
294.439
294.438
294.437
294.439
294.441
294.443
294.443
294.443
294.444
294.445
294.447
294.45
294.455
294.459
294.454
294.436
294.414
294.403
294.414
294.443
294.443
294.442
294.442
294.441
294.441
294.441
294.44
294.44
294.44
294.44
294.439
294.438
294.437
294.439
294.441
294.443
294.443
294.443
294.444
294.445
294.447
294.45
294.455
294.459
294.455
294.439
294.417
294.405
294.418
294.443
294.443
294.442
294.442
294.441
294.441
294.441
294.44
294.44
294.44
294.44
294.439
294.438
294.437
294.439
294.441
294.443
294.443
294.443
294.444
294.445
294.447
294.45
294.454
294.458
294.456
294.442
294.423
294.409
294.414
294.442
294.442
294.442
294.441
294.441
294.441
294.44
294.44
294.44
294.44
294.44
294.439
294.438
294.437
294.438
294.441
294.442
294.443
294.443
294.444
294.445
294.447
294.449
294.454
294.457
294.456
294.444
294.426
294.412
294.413
294.442
294.442
294.442
294.441
294.441
294.441
294.44
294.44
294.44
294.44
294.44
294.44
294.438
294.437
294.438
294.441
294.442
294.443
294.443
294.444
294.445
294.447
294.449
294.453
294.456
294.455
294.445
294.429
294.414
294.413
294.442
294.442
294.441
294.441
294.441
294.441
294.44
294.44
294.44
294.44
294.44
294.44
294.438
294.437
294.438
294.441
294.442
294.443
294.443
294.444
294.445
294.447
294.449
294.453
294.456
294.454
294.445
294.43
294.416
294.413
294.441
294.441
294.441
294.441
294.441
294.44
294.44
294.44
294.44
294.441
294.44
294.44
294.439
294.436
294.438
294.441
294.442
294.443
294.443
294.444
294.445
294.447
294.449
294.452
294.455
294.454
294.446
294.431
294.417
294.412
294.441
294.441
294.441
294.44
294.44
294.44
294.44
294.44
294.441
294.441
294.441
294.44
294.439
294.436
294.437
294.441
294.442
294.443
294.443
294.444
294.445
294.447
294.449
294.452
294.455
294.454
294.447
294.433
294.418
294.41
294.44
294.44
294.44
294.44
294.44
294.44
294.44
294.44
294.441
294.441
294.441
294.441
294.439
294.436
294.437
294.44
294.442
294.443
294.443
294.444
294.445
294.447
294.449
294.452
294.455
294.454
294.447
294.433
294.418
294.409
294.44
294.44
294.439
294.439
294.439
294.439
294.44
294.44
294.441
294.441
294.441
294.441
294.439
294.437
294.437
294.44
294.442
294.443
294.443
294.444
294.445
294.447
294.449
294.452
294.455
294.455
294.448
294.434
294.418
294.407
294.44
294.439
294.439
294.439
294.439
294.439
294.439
294.44
294.441
294.441
294.442
294.441
294.44
294.437
294.437
294.44
294.442
294.443
294.443
294.444
294.445
294.447
294.449
294.453
294.456
294.456
294.449
294.436
294.418
294.406
294.44
294.439
294.438
294.438
294.438
294.438
294.439
294.44
294.44
294.441
294.442
294.441
294.44
294.438
294.437
294.44
294.441
294.443
294.443
294.444
294.446
294.447
294.45
294.454
294.457
294.457
294.451
294.437
294.42
294.407
294.44
294.439
294.438
294.438
294.438
294.438
294.439
294.439
294.44
294.441
294.442
294.442
294.441
294.438
294.438
294.439
294.441
294.443
294.444
294.445
294.446
294.448
294.45
294.454
294.458
294.459
294.453
294.44
294.423
294.409
294.439
294.438
294.438
294.437
294.437
294.438
294.438
294.439
294.44
294.441
294.442
294.442
294.441
294.439
294.438
294.439
294.441
294.443
294.444
294.445
294.446
294.448
294.451
294.455
294.46
294.461
294.456
294.444
294.427
294.412
294.439
294.438
294.437
294.437
294.437
294.437
294.438
294.439
294.44
294.441
294.442
294.442
294.441
294.44
294.439
294.44
294.441
294.443
294.444
294.445
294.447
294.449
294.452
294.456
294.461
294.463
294.459
294.448
294.433
294.418
294.439
294.438
294.437
294.437
294.437
294.437
294.438
294.439
294.44
294.441
294.442
294.442
294.442
294.44
294.439
294.44
294.441
294.443
294.444
294.446
294.447
294.449
294.453
294.457
294.462
294.464
294.461
294.452
294.439
294.425
294.439
294.438
294.437
294.437
294.437
294.437
294.438
294.439
294.44
294.441
294.442
294.442
294.442
294.441
294.44
294.44
294.442
294.443
294.444
294.446
294.447
294.449
294.453
294.457
294.462
294.465
294.463
294.456
294.445
294.433
294.439
294.438
294.437
294.437
294.437
294.437
294.438
294.439
294.44
294.441
294.442
294.443
294.442
294.441
294.44
294.441
294.442
294.443
294.444
294.446
294.447
294.449
294.452
294.457
294.462
294.465
294.464
294.459
294.45
294.441
294.439
294.438
294.437
294.436
294.437
294.437
294.438
294.439
294.44
294.441
294.442
294.443
294.442
294.442
294.441
294.441
294.442
294.443
294.445
294.446
294.447
294.449
294.452
294.456
294.46
294.464
294.464
294.461
294.454
294.447
294.439
294.438
294.437
294.437
294.437
294.437
294.438
294.439
294.44
294.441
294.442
294.443
294.443
294.442
294.441
294.441
294.443
294.444
294.445
294.446
294.447
294.449
294.451
294.455
294.459
294.462
294.463
294.461
294.457
294.452
294.439
294.438
294.437
294.437
294.437
294.437
294.438
294.439
294.44
294.441
294.442
294.443
294.443
294.442
294.442
294.442
294.443
294.444
294.445
294.446
294.447
294.448
294.45
294.453
294.457
294.46
294.461
294.461
294.458
294.454
294.439
294.438
294.437
294.437
294.437
294.437
294.438
294.439
294.44
294.441
294.442
294.443
294.443
294.443
294.442
294.442
294.443
294.444
294.445
294.446
294.447
294.448
294.449
294.452
294.454
294.457
294.459
294.459
294.457
294.455
294.439
294.438
294.437
294.437
294.437
294.438
294.438
294.439
294.44
294.441
294.442
294.443
294.443
294.443
294.442
294.443
294.443
294.444
294.445
294.446
294.447
294.447
294.448
294.45
294.452
294.454
294.456
294.456
294.455
294.454
294.439
294.438
294.438
294.437
294.438
294.438
294.439
294.439
294.44
294.441
294.442
294.443
294.443
294.443
294.443
294.443
294.444
294.445
294.445
294.446
294.447
294.447
294.448
294.449
294.451
294.452
294.453
294.453
294.453
294.452
294.439
294.438
294.438
294.438
294.438
294.438
294.439
294.44
294.44
294.441
294.442
294.443
294.443
294.443
294.443
294.443
294.444
294.445
294.445
294.446
294.446
294.447
294.447
294.448
294.449
294.45
294.45
294.45
294.45
294.45
294.44
294.439
294.438
294.438
294.438
294.439
294.439
294.44
294.441
294.441
294.442
294.443
294.443
294.443
294.443
294.443
294.444
294.445
294.445
294.446
294.446
294.447
294.447
294.447
294.448
294.448
294.448
294.448
294.448
294.447
294.44
294.439
294.438
294.438
294.438
294.439
294.439
294.44
294.441
294.441
294.442
294.442
294.443
294.443
294.443
294.443
294.444
294.445
294.445
294.446
294.446
294.446
294.447
294.447
294.447
294.447
294.447
294.446
294.446
294.446
294.44
294.439
294.439
294.439
294.439
294.439
294.44
294.44
294.441
294.441
294.442
294.442
294.443
294.443
294.443
294.444
294.444
294.445
294.445
294.446
294.446
294.446
294.446
294.446
294.446
294.446
294.446
294.445
294.445
294.445
294.44
294.439
294.439
294.439
294.439
294.439
294.44
294.44
294.441
294.441
294.442
294.442
294.442
294.443
294.443
294.444
294.444
294.445
294.445
294.446
294.446
294.446
294.446
294.446
294.445
294.445
294.445
294.445
294.444
294.444
294.44
294.439
294.439
294.439
294.439
294.44
294.44
294.44
294.441
294.441
294.441
294.442
294.442
294.443
294.443
294.443
294.444
294.444
294.445
294.445
294.445
294.446
294.445
294.445
294.445
294.445
294.444
294.444
294.444
294.444
294.44
294.44
294.44
294.44
294.44
294.44
294.44
294.44
294.441
294.441
294.441
294.442
294.442
294.442
294.443
294.443
294.444
294.444
294.444
294.445
294.445
294.445
294.445
294.445
294.445
294.444
294.444
294.444
294.444
294.443
294.44
294.44
294.44
294.44
294.44
294.44
294.44
294.44
294.441
294.441
294.441
294.441
294.442
294.442
294.443
294.443
294.443
294.444
294.444
294.444
294.444
294.445
294.444
294.444
294.444
294.444
294.444
294.444
294.443
294.443
294.44
294.44
294.44
294.44
294.44
294.44
294.44
294.441
294.441
294.441
294.441
294.441
294.441
294.442
294.442
294.443
294.443
294.443
294.444
294.444
294.444
294.444
294.444
294.444
294.444
294.444
294.443
294.443
294.443
294.443
294.44
294.44
294.44
294.44
294.44
294.44
294.44
294.441
294.441
294.441
294.441
294.441
294.441
294.442
294.442
294.442
294.442
294.443
294.443
294.443
294.443
294.443
294.443
294.443
294.443
294.443
294.443
294.443
294.443
294.442
294.44
294.44
294.44
294.44
294.44
294.44
294.44
294.441
294.441
294.441
294.441
294.441
294.441
294.441
294.442
294.442
294.442
294.442
294.442
294.443
294.443
294.443
294.443
294.443
294.443
294.443
294.442
294.442
294.442
294.442
294.44
294.44
294.44
294.44
294.44
294.44
294.44
294.44
294.441
294.441
294.441
294.441
294.441
294.441
294.441
294.441
294.442
294.442
294.442
294.442
294.442
294.442
294.442
294.442
294.442
294.442
294.442
294.442
294.442
294.442
294.44
294.44
294.44
294.44
294.44
294.44
294.44
294.44
294.44
294.44
294.441
294.441
294.441
294.441
294.441
294.441
294.441
294.441
294.442
294.442
294.442
294.442
294.442
294.442
294.442
294.442
294.441
294.441
294.441
294.441
294.44
294.44
294.44
294.44
294.44
294.44
294.44
294.44
294.44
294.44
294.44
294.44
294.441
294.441
294.441
294.441
294.441
294.441
294.441
294.441
294.441
294.441
294.441
294.441
294.441
294.441
294.441
294.441
294.441
294.441
294.44
294.44
294.44
294.44
294.44
294.44
294.44
294.44
294.44
294.44
294.44
294.44
294.44
294.44
294.441
294.441
294.441
294.441
294.441
294.441
294.441
294.441
294.441
294.441
294.441
294.441
294.441
294.441
294.441
294.441
294.44
294.44
294.44
294.44
294.44
294.44
294.44
294.44
294.44
294.44
294.44
294.44
294.44
294.44
294.44
294.44
294.44
294.441
294.441
294.441
294.441
294.441
294.441
294.441
294.441
294.441
294.441
294.441
294.441
294.44
294.44
294.44
294.44
294.44
294.44
294.44
294.44
294.44
294.44
294.44
294.44
294.44
294.44
294.44
294.44
294.44
294.44
294.44
294.44
294.44
294.44
294.44
294.44
294.44
294.44
294.44
294.44
294.44
294.44
294.44
294.44
294.44
294.44
294.44
294.44
294.44
294.44
294.44
294.44
294.44
294.44
294.44
294.44
294.44
294.44
294.44
294.44
294.44
294.44
294.44
294.44
294.44
294.44
294.44
294.44
294.44
294.44
294.44
294.44
294.44
294.44
294.44
294.44
294.44
294.44
294.44
294.44
294.44
294.44
294.44
294.44
294.44
294.44
294.44
294.44
294.44
294.44
294.44
294.44
294.44
294.44
294.44
294.44
294.44
294.44
294.44
294.44
294.44
294.44
294.44
294.44
294.44
294.44
294.44
294.44
294.44
294.44
294.44
294.44
294.44
294.44
294.44
294.44
294.44
294.44
294.44
294.44
294.44
294.44
294.44
294.44
294.44
294.44
294.44
294.44
294.44
294.44
294.44
294.44
294.44
294.44
294.44
294.44
294.44
294.44
294.44
294.44
294.44
294.44
294.44
294.44
294.44
294.44
294.44
294.44
294.44
294.44
294.44
294.44
294.44
294.44
294.44
294.44
294.44
294.44
294.44
294.44
294.44
294.44
294.44
294.44
294.44
294.44
294.44
294.44
294.44
294.44
294.44
294.44
294.44
294.44
294.44
294.44
294.44
294.44
294.44
294.44
294.44
294.44
294.44
294.44
294.44
294.44
294.44
294.44
294.44
294.44
294.44
294.44
294.44
294.44
294.44
294.44
294.44
294.44
294.44
294.44
294.44
294.44
294.44
294.44
294.44
294.44
294.44
294.44
294.44
294.44
294.44
294.44
294.44
294.44
294.44
294.44
294.44
294.44
294.44
294.44
294.44
294.44
294.44
294.44
294.44
294.44
294.44
294.44
294.44
294.44
294.44
294.44
294.44
294.44
294.44
294.44
294.44
294.44
294.44
294.44