/*--------------------------------*- C++ -*----------------------------------*\
| =========                 |                                                 |
| \\      /  F ield         | OpenFOAM: The Open Source CFD Toolbox           |
|  \\    /   O peration     | Version:  2212                                  |
|   \\  /    A nd           | Website:  www.openfoam.com                      |
|    \\/     M anipulation  |                                                 |
\*---------------------------------------------------------------------------*/
FoamFile
{
    version     2.0;
    format      ascii;
    arch        "LSB;label=32;scalar=64";
    class       volScalarField;
    location    "10000";
    object      theta5_Scaled_;
}
// * * * * * * * * * * * * * * * * * * * * * * * * * * * * * * * * * * * * * //

dimensions      [0 0 0 0 0 0 0];

internalField   nonuniform List<scalar> 
18080
(
-9.54365e-07
-0.000596219
-0.00579281
-0.0250523
-0.0719868
-0.158956
-0.285834
-0.433993
-0.576779
-0.696462
-0.790454
-0.859342
-0.907525
-0.940165
-0.961754
-0.975764
-0.984714
-0.990361
-0.993898
-0.996106
-0.997489
-0.998361
-0.998918
-0.999277
-0.999512
-0.999667
-0.99977
-0.999838
-0.999884
-0.999914
-0.999934
-0.999946
-0.999954
-0.999959
-0.999961
-0.999961
-0.999959
-0.999955
-0.999948
-0.999938
-0.999923
-0.999902
-0.999872
-0.999829
-0.999765
-0.999674
-0.999542
-0.999361
-3.34691e-07
-0.00107963
-0.00886631
-0.036561
-0.102616
-0.220336
-0.379684
-0.546518
-0.688329
-0.79298
-0.86572
-0.914564
-0.946352
-0.966637
-0.979399
-0.987338
-0.99223
-0.995223
-0.997047
-0.998158
-0.998838
-0.999257
-0.999519
-0.999684
-0.999789
-0.999857
-0.999902
-0.999931
-0.999951
-0.999963
-0.999972
-0.999977
-0.99998
-0.999982
-0.999983
-0.999983
-0.999982
-0.99998
-0.999977
-0.999972
-0.999965
-0.999955
-0.999941
-0.999919
-0.999888
-0.999844
-0.999784
-0.999706
-1.37673e-05
-0.000409335
-0.00342424
-0.0153324
-0.0484214
-0.12061
-0.244742
-0.409681
-0.579204
-0.719651
-0.821686
-0.889978
-0.933144
-0.959617
-0.975618
-0.985234
-0.991008
-0.994482
-0.996582
-0.997858
-0.998641
-0.999126
-0.99943
-0.999623
-0.999747
-0.999828
-0.999881
-0.999915
-0.999939
-0.999954
-0.999964
-0.999971
-0.999975
-0.999978
-0.99998
-0.99998
-0.999979
-0.999977
-0.999974
-0.999969
-0.999962
-0.999951
-0.999934
-0.999908
-0.99987
-0.999815
-0.999736
-0.999634
-5.65483e-05
-8.04154e-05
-0.000860615
-0.00473702
-0.0178707
-0.0529035
-0.128336
-0.257012
-0.426051
-0.596824
-0.737621
-0.837997
-0.902696
-0.942173
-0.965653
-0.979499
-0.987667
-0.992509
-0.995402
-0.997145
-0.998206
-0.998858
-0.999263
-0.999518
-0.999679
-0.999783
-0.999851
-0.999895
-0.999924
-0.999943
-0.999956
-0.999964
-0.99997
-0.999974
-0.999975
-0.999976
-0.999976
-0.999974
-0.99997
-0.999965
-0.999956
-0.999942
-0.99992
-0.999888
-0.999837
-0.999761
-0.999649
-0.9995
-0.000118486
-1.57956e-05
-0.000253146
-0.00177272
-0.0078047
-0.0261226
-0.0711343
-0.160848
-0.302192
-0.474036
-0.639436
-0.770739
-0.860758
-0.917251
-0.951119
-0.971043
-0.982716
-0.989581
-0.993649
-0.996082
-0.997553
-0.998451
-0.999006
-0.999353
-0.999572
-0.999712
-0.999802
-0.99986
-0.999899
-0.999924
-0.999942
-0.999953
-0.999961
-0.999965
-0.999968
-0.999969
-0.999969
-0.999966
-0.999962
-0.999955
-0.999943
-0.999926
-0.999898
-0.999854
-0.999787
-0.999684
-0.99953
-0.999323
-0.00024289
-1.50504e-06
-6.89436e-05
-0.000701302
-0.00366817
-0.013724
-0.0408887
-0.101067
-0.209203
-0.362613
-0.534848
-0.690311
-0.806819
-0.883838
-0.931203
-0.959337
-0.975839
-0.985514
-0.99122
-0.994615
-0.996656
-0.997896
-0.998658
-0.999132
-0.999429
-0.999617
-0.999738
-0.999816
-0.999867
-0.999901
-0.999924
-0.999939
-0.999949
-0.999956
-0.99996
-0.999961
-0.999961
-0.999958
-0.999953
-0.999945
-0.999931
-0.999909
-0.999874
-0.99982
-0.999735
-0.999603
-0.999402
-0.999131
-0.000490274
-2.71331e-07
-1.19173e-05
-0.000271636
-0.00178715
-0.0075174
-0.0242408
-0.064229
-0.143228
-0.269699
-0.432679
-0.600834
-0.741133
-0.840837
-0.904771
-0.943552
-0.966496
-0.979974
-0.987911
-0.992618
-0.995437
-0.997143
-0.998186
-0.998831
-0.999235
-0.999489
-0.999652
-0.999756
-0.999825
-0.999871
-0.999901
-0.999921
-0.999934
-0.999943
-0.999948
-0.999951
-0.99995
-0.999948
-0.999941
-0.999931
-0.999913
-0.999886
-0.999843
-0.999774
-0.999666
-0.999496
-0.999235
-0.998882
-0.00100279
-2.9284e-06
-8.73913e-08
-0.000102627
-0.000922813
-0.00437554
-0.0150834
-0.0420712
-0.0989177
-0.198272
-0.341517
-0.509029
-0.665929
-0.787809
-0.870655
-0.922641
-0.953942
-0.972474
-0.983416
-0.989902
-0.993779
-0.996119
-0.997546
-0.998425
-0.998973
-0.999317
-0.999536
-0.999677
-0.999769
-0.99983
-0.99987
-0.999897
-0.999915
-0.999927
-0.999934
-0.999938
-0.999938
-0.999935
-0.999928
-0.999915
-0.999894
-0.999861
-0.999808
-0.999725
-0.999592
-0.999381
-0.999052
-0.998609
-0.00210987
-7.11899e-06
-3.5321e-06
-3.73403e-05
-0.000517755
-0.00275198
-0.00997434
-0.0287494
-0.0698526
-0.146029
-0.265536
-0.421214
-0.584666
-0.725012
-0.827715
-0.895316
-0.937174
-0.962334
-0.977297
-0.986193
-0.991512
-0.994719
-0.99667
-0.99787
-0.998615
-0.999083
-0.99938
-0.99957
-0.999694
-0.999776
-0.99983
-0.999866
-0.999891
-0.999906
-0.999916
-0.999922
-0.999923
-0.999919
-0.999911
-0.999896
-0.999871
-0.999832
-0.999768
-0.999667
-0.999505
-0.999245
-0.998832
-0.998279
-0.00453183
-1.28215e-05
-1.24898e-05
-1.22011e-05
-0.000317315
-0.00186981
-0.00700107
-0.0205047
-0.0506202
-0.10844
-0.204725
-0.341595
-0.501243
-0.653484
-0.77497
-0.860053
-0.914868
-0.948599
-0.968924
-0.981087
-0.988381
-0.992782
-0.995459
-0.997103
-0.998122
-0.998761
-0.999165
-0.999423
-0.999592
-0.999703
-0.999776
-0.999825
-0.999858
-0.99988
-0.999894
-0.999902
-0.999904
-0.999901
-0.999892
-0.999874
-0.999846
-0.999799
-0.999724
-0.999604
-0.99941
-0.999095
-0.998587
-0.997909
-0.0097423
-2.12752e-05
-2.55329e-05
-2.32125e-06
-0.000203738
-0.00133606
-0.00512049
-0.0150807
-0.0374057
-0.0810826
-0.156788
-0.271947
-0.419229
-0.575022
-0.711826
-0.815162
-0.885322
-0.929958
-0.957395
-0.973997
-0.984013
-0.990073
-0.993763
-0.996029
-0.997433
-0.998312
-0.998868
-0.999221
-0.999453
-0.999604
-0.999704
-0.999771
-0.999817
-0.999846
-0.999866
-0.999877
-0.999882
-0.999879
-0.99987
-0.99985
-0.999818
-0.999764
-0.999677
-0.999536
-0.999307
-0.998928
-0.998308
-0.997477
-0.0205067
-3.40763e-05
-4.39449e-05
-4.80065e-08
-0.000129116
-0.000971543
-0.00381776
-0.0112717
-0.0279369
-0.0608075
-0.119242
-0.212779
-0.341974
-0.492598
-0.63877
-0.759254
-0.846617
-0.904738
-0.941486
-0.964097
-0.977871
-0.98625
-0.991366
-0.994511
-0.99646
-0.99768
-0.998451
-0.998939
-0.999261
-0.99947
-0.999608
-0.9997
-0.999763
-0.999804
-0.999831
-0.999847
-0.999855
-0.999854
-0.999845
-0.999824
-0.999788
-0.999727
-0.999628
-0.999466
-0.999198
-0.998747
-0.997993
-0.996973
-0.0413161
-5.39718e-05
-7.09654e-05
-4.1238e-06
-7.37007e-05
-0.000693574
-0.00284058
-0.00844821
-0.0209255
-0.0455859
-0.0900748
-0.163956
-0.27245
-0.410374
-0.558078
-0.692005
-0.797041
-0.871037
-0.919649
-0.950279
-0.969213
-0.980829
-0.987955
-0.99235
-0.995075
-0.996784
-0.997864
-0.998544
-0.998994
-0.999287
-0.999477
-0.999605
-0.999693
-0.999749
-0.999788
-0.999812
-0.999824
-0.999826
-0.999818
-0.999796
-0.999757
-0.999689
-0.999577
-0.999392
-0.999081
-0.998544
-0.997627
-0.996358
-0.0775998
-8.21695e-05
-0.000107384
-1.51811e-05
-3.44457e-05
-0.000478463
-0.00209615
-0.00633943
-0.015744
-0.0343043
-0.0680067
-0.125342
-0.213455
-0.333775
-0.474789
-0.61568
-0.736326
-0.827442
-0.890348
-0.931294
-0.957136
-0.973196
-0.983125
-0.98928
-0.993107
-0.995513
-0.997034
-0.997988
-0.998624
-0.999035
-0.999301
-0.99948
-0.999602
-0.99968
-0.999735
-0.999769
-0.999788
-0.999794
-0.999788
-0.999766
-0.999724
-0.99965
-0.999526
-0.999315
-0.998954
-0.998314
-0.997191
-0.995584
-0.133102
-0.000120155
-0.000154795
-3.48934e-05
-9.46668e-06
-0.000310255
-0.00152555
-0.00477351
-0.0119767
-0.0261546
-0.0519029
-0.0962794
-0.166524
-0.267758
-0.395687
-0.535612
-0.666812
-0.774012
-0.85265
-0.90604
-0.94071
-0.962657
-0.976388
-0.984969
-0.990333
-0.993721
-0.995867
-0.997207
-0.99811
-0.99869
-0.999062
-0.999312
-0.999483
-0.999591
-0.999669
-0.999716
-0.999745
-0.999758
-0.999755
-0.999734
-0.99969
-0.99961
-0.999471
-0.999232
-0.998812
-0.998043
-0.996651
-0.994564
-0.205488
-0.000165156
-0.000209653
-6.37587e-05
-8.29362e-08
-0.000187702
-0.00111381
-0.00368601
-0.00942743
-0.0206856
-0.0410028
-0.0760842
-0.132355
-0.216284
-0.328282
-0.460289
-0.594875
-0.714056
-0.807623
-0.874459
-0.919477
-0.948705
-0.967308
-0.97908
-0.986503
-0.991231
-0.994243
-0.996117
-0.997401
-0.998219
-0.998739
-0.99909
-0.999329
-0.999478
-0.999587
-0.999652
-0.999695
-0.999716
-0.999717
-0.999698
-0.999652
-0.999566
-0.999413
-0.999142
-0.998651
-0.99772
-0.995973
-0.993204
-0.284929
-0.000212936
-0.000268091
-0.000103363
-6.1893e-06
-0.000105781
-0.000845925
-0.00303112
-0.00795844
-0.0175503
-0.0346125
-0.063771
-0.110383
-0.180843
-0.277793
-0.398151
-0.529333
-0.654205
-0.759094
-0.838306
-0.893998
-0.931296
-0.956037
-0.972417
-0.982716
-0.989076
-0.992968
-0.995285
-0.99682
-0.997794
-0.998428
-0.998866
-0.99917
-0.999359
-0.9995
-0.999584
-0.99964
-0.99967
-0.999677
-0.999661
-0.999613
-0.99952
-0.999351
-0.999044
-0.998466
-0.997329
-0.995107
-0.991349
-0.35718
-0.000254914
-0.000322086
-0.000154571
-2.65151e-05
-5.88668e-05
-0.000715626
-0.00279798
-0.00751466
-0.0165447
-0.0321944
-0.0582985
-0.0992023
-0.160593
-0.245658
-0.354099
-0.477579
-0.601874
-0.712649
-0.800706
-0.870636
-0.919321
-0.948938
-0.967001
-0.978756
-0.986424
-0.991343
-0.994475
-0.996519
-0.997628
-0.998275
-0.998723
-0.999049
-0.999254
-0.999417
-0.999512
-0.999579
-0.999617
-0.999628
-0.999613
-0.999564
-0.999463
-0.999273
-0.998919
-0.998224
-0.996797
-0.993888
-0.988649
-0.410813
-0.000280701
-0.000362409
-0.000217714
-5.63309e-05
-4.05957e-05
-0.000740824
-0.00305762
-0.00821423
-0.0177567
-0.0336244
-0.0590714
-0.0975441
-0.153816
-0.230693
-0.328996
-0.443254
-0.562097
-0.683613
-0.784483
-0.851184
-0.89858
-0.932989
-0.955553
-0.969794
-0.979317
-0.985795
-0.990012
-0.993445
-0.995763
-0.997266
-0.998163
-0.998666
-0.998942
-0.999184
-0.99932
-0.99942
-0.99948
-0.999508
-0.999501
-0.999452
-0.999338
-0.999115
-0.998682
-0.997784
-0.995857
-0.991758
-0.983968
-0.439729
-0.000283879
-0.000384901
-0.000295555
-8.7595e-05
-4.90644e-05
-0.00098906
-0.00400713
-0.0103856
-0.0215543
-0.0390889
-0.0657542
-0.104149
-0.158089
-0.229632
-0.31962
-0.432947
-0.560565
-0.666929
-0.75821
-0.829158
-0.876161
-0.907748
-0.930899
-0.947853
-0.960863
-0.970844
-0.977639
-0.984408
-0.989032
-0.992194
-0.994936
-0.996867
-0.997786
-0.99838
-0.998639
-0.998882
-0.999048
-0.999154
-0.999201
-0.999179
-0.999062
-0.998791
-0.99822
-0.996947
-0.994045
-0.987535
-0.97454
-0.44236
-0.000256465
-0.000379734
-0.000383063
-0.000103686
-0.000113495
-0.00166653
-0.00611341
-0.0147343
-0.0287436
-0.0492253
-0.0784503
-0.118171
-0.171211
-0.243195
-0.343155
-0.45119
-0.558061
-0.655675
-0.727332
-0.782944
-0.826126
-0.858561
-0.882965
-0.900991
-0.915906
-0.928764
-0.936061
-0.951845
-0.963715
-0.97264
-0.981795
-0.988527
-0.991789
-0.994758
-0.995586
-0.996279
-0.99716
-0.997875
-0.998326
-0.998527
-0.998504
-0.998208
-0.997425
-0.995428
-0.990387
-0.977831
-0.950309
-0.420114
-0.000208881
-0.000357905
-0.000491635
-9.46088e-05
-0.000330875
-0.00316451
-0.010077
-0.0221211
-0.0400769
-0.0643137
-0.0965565
-0.140087
-0.204651
-0.285136
-0.371724
-0.46268
-0.539693
-0.605704
-0.662971
-0.709769
-0.744452
-0.765993
-0.774301
-0.765539
-0.739343
-0.686597
-0.522613
-0.457578
-0.360971
-0.260227
-0.495716
-0.789703
-0.813535
-0.883222
-0.805385
-0.856984
-0.920575
-0.977671
-0.992775
-0.996166
-0.997088
-0.996999
-0.995857
-0.992071
-0.980244
-0.941359
-0.827517
-0.3762
-0.000145174
-0.000314398
-0.000614997
-5.03625e-05
-0.000966117
-0.00621813
-0.0169482
-0.033612
-0.0562869
-0.0843644
-0.126456
-0.181917
-0.24297
-0.30951
-0.370014
-0.422482
-0.474345
-0.522624
-0.561826
-0.587352
-0.591221
-0.558893
-0.462037
-0.237468
-0.000124234
-0.353887
-0.778667
-0.888268
-0.940121
-0.964379
-0.972102
-0.974873
-0.984369
-0.988025
-0.99276
-0.994128
-0.992894
-0.981063
-0.153968
-0.9819
-0.993766
-0.995071
-0.993419
-0.984887
-0.941136
-0.588482
-0.0735988
-0.31809
-8.4056e-05
-0.000265251
-0.000774222
-2.67435e-06
-0.00252836
-0.0118106
-0.0277493
-0.0498496
-0.0784455
-0.119651
-0.164324
-0.211022
-0.252521
-0.285429
-0.318665
-0.350798
-0.379569
-0.401082
-0.406109
-0.381786
-0.302943
-0.136799
-0.00255013
-0.364286
-0.754314
-0.905293
-0.961444
-0.979023
-0.987983
-0.992533
-0.994539
-0.995807
-0.997414
-0.998229
-0.99886
-0.999023
-0.998773
-0.997587
-0.989384
-0.380637
-0.988285
-0.993476
-0.991142
-0.97075
-0.602783
-0.728027
-0.895985
-0.25495
-3.67069e-05
-0.000217477
-0.000989609
-5.8159e-05
-0.00581747
-0.0209365
-0.0430143
-0.0704613
-0.109857
-0.14847
-0.180289
-0.202423
-0.223044
-0.240568
-0.254542
-0.262872
-0.261914
-0.24499
-0.198155
-0.108461
-0.00605482
-0.125599
-0.545109
-0.824229
-0.930164
-0.969514
-0.986021
-0.992137
-0.995401
-0.997109
-0.997943
-0.998515
-0.999111
-0.999422
-0.999625
-0.999681
-0.999618
-0.999269
-0.997144
-0.920623
-0.984647
-0.993746
-0.990909
-0.95038
-0.53663
-0.948095
-0.968633
-0.196133
-8.13732e-06
-0.000171584
-0.00127577
-0.00048758
-0.0119231
-0.0344486
-0.0628292
-0.103311
-0.139416
-0.160524
-0.177617
-0.190707
-0.199453
-0.201712
-0.196278
-0.179874
-0.147921
-0.09551
-0.0267123
-0.00956833
-0.216339
-0.588453
-0.829242
-0.931094
-0.970164
-0.986091
-0.993271
-0.99616
-0.997739
-0.998578
-0.999008
-0.999312
-0.9996
-0.999748
-0.999836
-0.99986
-0.999833
-0.999696
-0.998945
-0.979752
-0.980362
-0.994401
-0.991585
-0.929065
-0.885252
-0.976042
-0.983849
-0.14778
-9.92254e-09
-0.000142703
-0.00170523
-0.00176248
-0.0215746
-0.0519102
-0.0875856
-0.125587
-0.146309
-0.161173
-0.171154
-0.175007
-0.171841
-0.158817
-0.134272
-0.0957241
-0.0451196
-0.00259522
-0.0414485
-0.268149
-0.595318
-0.819208
-0.923367
-0.966865
-0.98479
-0.992617
-0.996313
-0.997875
-0.998745
-0.999211
-0.999458
-0.999634
-0.999793
-0.999872
-0.999916
-0.999927
-0.999912
-0.999843
-0.999507
-0.994557
-0.976425
-0.995686
-0.994428
-0.970163
-0.716999
-0.971072
-0.982601
-0.111739
-6.17353e-06
-0.000113601
-0.00224176
-0.00465776
-0.03514
-0.0722635
-0.116113
-0.138243
-0.154612
-0.163482
-0.165584
-0.15954
-0.143959
-0.115996
-0.0758168
-0.0285621
-3.44403e-06
-0.057369
-0.275011
-0.574242
-0.795083
-0.908911
-0.959603
-0.981654
-0.991258
-0.995648
-0.997783
-0.998715
-0.999241
-0.999524
-0.999677
-0.999787
-0.999881
-0.999927
-0.999952
-0.999957
-0.999948
-0.999908
-0.999732
-0.998025
-0.962891
-0.996921
-0.99724
-0.993549
-0.957323
-0.00503922
-0.65864
-0.086415
-1.60563e-05
-0.000111683
-0.00302718
-0.00966192
-0.0508581
-0.0916651
-0.125767
-0.143444
-0.153661
-0.154956
-0.147667
-0.130918
-0.103635
-0.0651455
-0.0226883
-8.40837e-05
-0.0545116
-0.24562
-0.524689
-0.753227
-0.88422
-0.947338
-0.975874
-0.988731
-0.99453
-0.997247
-0.998587
-0.999183
-0.999519
-0.999701
-0.9998
-0.99987
-0.999927
-0.999955
-0.99997
-0.999974
-0.999969
-0.999953
-0.999906
-0.999777
-0.999431
-0.998882
-0.998511
-0.997334
-0.991693
-0.978068
-0.844276
-0.0679354
-2.71645e-05
-0.000107284
-0.00375004
-0.0180482
-0.0694063
-0.114859
-0.135006
-0.147234
-0.1512
-0.146274
-0.133837
-0.115917
-0.094572
-0.0715019
-0.0502035
-0.0303929
-0.0121222
-4.5252e-05
-0.0344289
-0.237379
-0.602875
-0.851329
-0.948059
-0.981034
-0.992449
-0.996757
-0.99854
-0.999236
-0.999589
-0.999768
-0.999862
-0.999921
-0.99996
-0.999978
-0.999987
-0.99999
-0.999992
-0.999992
-0.999992
-0.999992
-0.999991
-0.999988
-0.999973
-0.999767
-0.61272
-0.995279
-0.998858
-0.0561587
-3.22845e-05
-8.01345e-05
-0.00269081
-0.0393139
-0.106412
-0.158151
-0.179094
-0.197081
-0.221909
-0.274811
-0.380307
-0.549708
-0.733638
-0.864383
-0.933566
-0.965845
-0.980752
-0.987933
-0.991588
-0.993537
-0.994594
-0.995132
-0.995318
-0.995191
-0.994695
-0.993567
-0.990711
-0.983657
-0.949501
-0.0107614
-0.97546
-0.996774
-0.999342
-0.999771
-0.999898
-0.999939
-0.999957
-0.999967
-0.999971
-0.999968
-0.999955
-0.9999
-0.999373
-0.960501
-0.927545
-0.975005
-0.99354
-0.0484646
-3.97526e-05
-0.000181927
-0.00640586
-0.1824
-0.300513
-0.375678
-0.463815
-0.60311
-0.768969
-0.890723
-0.949751
-0.973418
-0.982518
-0.985848
-0.98668
-0.986289
-0.985269
-0.983972
-0.982653
-0.981489
-0.980603
-0.980033
-0.979758
-0.979804
-0.98015
-0.980693
-0.981176
-0.981428
-0.982195
-0.983734
-0.986289
-0.989364
-0.991378
-0.991507
-0.989475
-0.982087
-0.943864
-0.344523
-0.980574
-0.995495
-0.997994
-0.998592
-0.998167
-0.995417
-0.986229
-0.954924
-0.803539
-0.0420456
-0.000357021
-0.0365169
-0.425284
-0.752126
-0.821699
-0.877319
-0.931476
-0.965012
-0.97871
-0.982359
-0.98134
-0.977601
-0.971905
-0.964805
-0.956762
-0.948378
-0.940229
-0.932772
-0.926491
-0.921668
-0.918455
-0.916712
-0.916154
-0.916496
-0.917399
-0.918845
-0.919912
-0.919716
-0.922232
-0.929189
-0.942619
-0.96145
-0.977546
-0.986488
-0.990688
-0.990557
-0.982376
-0.919671
-0.479264
-0.621986
-0.958978
-0.980639
-0.977945
-0.957624
-0.917596
-0.851302
-0.728945
-0.0361184
-0.0145922
-0.534372
-0.910307
-0.959486
-0.970603
-0.980566
-0.985293
-0.985386
-0.982596
-0.977893
-0.97179
-0.964517
-0.956087
-0.946461
-0.935596
-0.923743
-0.911365
-0.899497
-0.889081
-0.880315
-0.873315
-0.867869
-0.863594
-0.860101
-0.857108
-0.854787
-0.851201
-0.84401
-0.835925
-0.82804
-0.829772
-0.85988
-0.914114
-0.95509
-0.974579
-0.979538
-0.966777
-0.88418
-0.501673
-0.234746
-0.188592
-0.213498
-0.356059
-0.538879
-0.615968
-0.618167
-0.578473
-0.0164604
-0.354422
-0.913879
-0.973379
-0.984073
-0.987631
-0.989007
-0.987652
-0.984651
-0.980653
-0.97586
-0.970228
-0.963677
-0.956193
-0.94793
-0.939136
-0.930212
-0.92156
-0.913968
-0.90768
-0.90258
-0.89846
-0.894997
-0.891903
-0.888912
-0.885881
-0.882883
-0.879274
-0.873644
-0.862199
-0.834597
-0.782379
-0.716595
-0.709445
-0.787224
-0.865035
-0.909818
-0.940018
-0.956681
-0.96856
-0.977317
-0.982985
-0.986667
-0.988751
-0.989685
-0.989383
-0.987298
-0.983544
-0.0918716
-0.914324
-0.974265
-0.985284
-0.989495
-0.990988
-0.989744
-0.987234
-0.983954
-0.980067
-0.975414
-0.970037
-0.964316
-0.958631
-0.953273
-0.948479
-0.944429
-0.941121
-0.938386
-0.936016
-0.934076
-0.932425
-0.93092
-0.929484
-0.928031
-0.926468
-0.924767
-0.923122
-0.921888
-0.919039
-0.90618
-0.873849
-0.800523
-0.668561
-0.65873
-0.78495
-0.890091
-0.962898
-0.983829
-0.990364
-0.992867
-0.99372
-0.993809
-0.993259
-0.992258
-0.99114
-0.989573
-0.988033
-0.864104
-0.976679
-0.985344
-0.989521
-0.991597
-0.991289
-0.989256
-0.98611
-0.981423
-0.975113
-0.968788
-0.963657
-0.959855
-0.957443
-0.956364
-0.956002
-0.955713
-0.955398
-0.95502
-0.954507
-0.953788
-0.952908
-0.951942
-0.950947
-0.949942
-0.948878
-0.94771
-0.946598
-0.946439
-0.947409
-0.946236
-0.936653
-0.910603
-0.850146
-0.81995
-0.878331
-0.929542
-0.958792
-0.97064
-0.97536
-0.976364
-0.975426
-0.971973
-0.965486
-0.958192
-0.953492
-0.951102
-0.953078
-0.971043
-0.98515
-0.988745
-0.991405
-0.992262
-0.9906
-0.985693
-0.979571
-0.97446
-0.969365
-0.964918
-0.961772
-0.95985
-0.958967
-0.958869
-0.959493
-0.960842
-0.962343
-0.963413
-0.963873
-0.963772
-0.963329
-0.962708
-0.962021
-0.961334
-0.960646
-0.959924
-0.959159
-0.958885
-0.960108
-0.963395
-0.963595
-0.957662
-0.940798
-0.916837
-0.917532
-0.929317
-0.914882
-0.883368
-0.850185
-0.816405
-0.781262
-0.740877
-0.711224
-0.721705
-0.76053
-0.800215
-0.836955
-0.981938
-0.987325
-0.989699
-0.991555
-0.991008
-0.985871
-0.980588
-0.975208
-0.971221
-0.968307
-0.966277
-0.96505
-0.964376
-0.964019
-0.963749
-0.963694
-0.964062
-0.964566
-0.965025
-0.965404
-0.965609
-0.965647
-0.965589
-0.965442
-0.965245
-0.965004
-0.964697
-0.964314
-0.963924
-0.964154
-0.966785
-0.971158
-0.972951
-0.968945
-0.950307
-0.92151
-0.897365
-0.832015
-0.708751
-0.552683
-0.417947
-0.34233
-0.33266
-0.402391
-0.541502
-0.676702
-0.764789
-0.816144
-0.983714
-0.987186
-0.987904
-0.988325
-0.987225
-0.982296
-0.97725
-0.973216
-0.97094
-0.969874
-0.969364
-0.9692
-0.969171
-0.969141
-0.968926
-0.968608
-0.968273
-0.967885
-0.967488
-0.967117
-0.966717
-0.966326
-0.965808
-0.965232
-0.964634
-0.964062
-0.963549
-0.963081
-0.962535
-0.961862
-0.961844
-0.966045
-0.971173
-0.973301
-0.963569
-0.935934
-0.893954
-0.814636
-0.678914
-0.511139
-0.392607
-0.369374
-0.440575
-0.570981
-0.713066
-0.809735
-0.862519
-0.890278
-0.982711
-0.983637
-0.985508
-0.986117
-0.983451
-0.977569
-0.972846
-0.970426
-0.969812
-0.970108
-0.97072
-0.971389
-0.971978
-0.972431
-0.972467
-0.972267
-0.971963
-0.971558
-0.971066
-0.97047
-0.96973
-0.968963
-0.968127
-0.967281
-0.966471
-0.965573
-0.964704
-0.963921
-0.963193
-0.962289
-0.96077
-0.960896
-0.965299
-0.969659
-0.968588
-0.958634
-0.934403
-0.887877
-0.81858
-0.743788
-0.704756
-0.723757
-0.784264
-0.851138
-0.900197
-0.927847
-0.9419
-0.949046
-0.977839
-0.97953
-0.980362
-0.978806
-0.973279
-0.966817
-0.963962
-0.963919
-0.965262
-0.966939
-0.968534
-0.969916
-0.971046
-0.971929
-0.972552
-0.972976
-0.973233
-0.973336
-0.973306
-0.97307
-0.972507
-0.971871
-0.971173
-0.970441
-0.969703
-0.968862
-0.967956
-0.967117
-0.966334
-0.965547
-0.964313
-0.962342
-0.962042
-0.965803
-0.968845
-0.970581
-0.965791
-0.954443
-0.938212
-0.92378
-0.920158
-0.926842
-0.94002
-0.95437
-0.963399
-0.967764
-0.968396
-0.968112
-0.963086
-0.965795
-0.959655
-0.945078
-0.931623
-0.930567
-0.935653
-0.94169
-0.947597
-0.952634
-0.956811
-0.960253
-0.963076
-0.965378
-0.96725
-0.968869
-0.970139
-0.971091
-0.971767
-0.9722
-0.972415
-0.97248
-0.97241
-0.972226
-0.971951
-0.971483
-0.970739
-0.969995
-0.969278
-0.968647
-0.967968
-0.966705
-0.964398
-0.963596
-0.967843
-0.970941
-0.973289
-0.973474
-0.971528
-0.969308
-0.968707
-0.969187
-0.969999
-0.971215
-0.972137
-0.972159
-0.970324
-0.968102
-0.927834
-0.904788
-0.846645
-0.738344
-0.696251
-0.752228
-0.803536
-0.839919
-0.866703
-0.887225
-0.903414
-0.91645
-0.927096
-0.935854
-0.94311
-0.949461
-0.9546
-0.958714
-0.961966
-0.964503
-0.96645
-0.967914
-0.96911
-0.969962
-0.970501
-0.970782
-0.970858
-0.970792
-0.970613
-0.970394
-0.970163
-0.969762
-0.968392
-0.965236
-0.966826
-0.969011
-0.970052
-0.970831
-0.971009
-0.970613
-0.970095
-0.969696
-0.969059
-0.968102
-0.967556
-0.966361
-0.963925
-0.960693
-0.778957
-0.55406
-0.307838
-0.131294
-0.110633
-0.183948
-0.275986
-0.365964
-0.450149
-0.528106
-0.599069
-0.662494
-0.718193
-0.766145
-0.806563
-0.840238
-0.867762
-0.889987
-0.907748
-0.921823
-0.93291
-0.941622
-0.948902
-0.954547
-0.958819
-0.96201
-0.964352
-0.966021
-0.967128
-0.967811
-0.968342
-0.968701
-0.968589
-0.966945
-0.965679
-0.967788
-0.968601
-0.96779
-0.966855
-0.966347
-0.966319
-0.966063
-0.965386
-0.964199
-0.962785
-0.960683
-0.958512
-0.955099
-0.189074
-0.0395902
-0.0103554
-0.00265794
-0.0021978
-0.00495975
-0.0096628
-0.0162154
-0.0250993
-0.0372015
-0.0536729
-0.0760074
-0.106101
-0.145994
-0.197328
-0.260846
-0.335952
-0.419708
-0.506973
-0.591613
-0.668239
-0.733814
-0.787664
-0.830307
-0.863307
-0.888453
-0.90747
-0.921904
-0.932762
-0.940937
-0.94765
-0.952864
-0.956759
-0.959215
-0.959957
-0.9613
-0.963033
-0.963296
-0.963307
-0.963303
-0.963302
-0.962989
-0.962377
-0.961738
-0.960829
-0.959247
-0.958515
-0.956738
-0.00253453
-0.000221893
-4.92092e-05
-1.28985e-05
-1.04472e-05
-2.75449e-05
-5.84188e-05
-0.000104065
-0.000169912
-0.000265795
-0.000406446
-0.000614737
-0.000927501
-0.00140247
-0.0021291
-0.00324935
-0.00499692
-0.00774694
-0.0120933
-0.0189571
-0.0297068
-0.0463392
-0.0714538
-0.108264
-0.159844
-0.227586
-0.309759
-0.401722
-0.49476
-0.581057
-0.656914
-0.71929
-0.76865
-0.807846
-0.834958
-0.853778
-0.870253
-0.884408
-0.894991
-0.902394
-0.908314
-0.912025
-0.913067
-0.911327
-0.907687
-0.906572
-0.909068
-0.912614
-1.7913e-06
-9.19531e-08
-1.93151e-08
-4.65333e-09
-4.71457e-09
-1.39727e-08
-3.12474e-08
-5.74366e-08
-9.60798e-08
-1.53502e-07
-2.39299e-07
-3.68555e-07
-5.65978e-07
-8.70991e-07
-1.3463e-06
-2.09433e-06
-3.28844e-06
-5.21959e-06
-8.37577e-06
-1.35778e-05
-2.21933e-05
-3.65511e-05
-6.05186e-05
-0.000100777
-0.000168672
-0.000282908
-0.000474076
-0.00079485
-0.00132043
-0.00216384
-0.00350559
-0.00555601
-0.00856873
-0.0130932
-0.0190956
-0.0259025
-0.0347106
-0.0453863
-0.0576205
-0.0710954
-0.0850759
-0.0966515
-0.103285
-0.0994869
-0.0884863
-0.0876698
-0.0989968
-0.131242
-0.000471055
-3.04158e-05
-7.69085e-06
-3.90716e-06
-2.70045e-06
-2.19787e-06
-2.01385e-06
-2.08502e-06
-2.39768e-06
-3.0394e-06
-4.34802e-06
-7.76062e-06
-2.75048e-05
-8.67693e-05
-7.54643e-06
-2.77034e-10
-1.72023e-09
-1.11558e-08
-1.40694e-07
-6.80151e-07
-2.38408e-06
-7.5427e-06
-2.29891e-05
-6.87859e-05
-0.000200201
-0.000564148
-0.0015879
-0.0049984
-0.0200674
-0.143912
-0.062066
-0.0288654
-0.0101332
-0.00536469
-0.00370258
-0.00299789
-0.00272459
-0.00278316
-0.00313984
-0.003887
-0.00540984
-0.00933356
-0.0269359
-0.0642776
-0.00993069
-3.04301e-07
-1.71162e-08
-2.66397e-05
-0.000204224
-0.000811252
-0.00249403
-0.00692645
-0.0180879
-0.0521845
-0.116366
-0.22474
-0.373507
-0.538119
-0.673956
-0.719708
-0.427626
-0.532829
-0.390872
-0.27586
-0.201128
-0.17215
-0.159851
-0.161477
-0.175238
-0.20267
-0.252017
-0.349253
-0.538675
-0.671347
-0.362552
-0.00260603
-1.96015e-05
-0.00478261
-0.0218391
-0.0642792
-0.147657
-0.281369
-0.447184
-0.624401
-0.740358
-0.815072
-0.86161
-0.887737
-0.894193
-0.784255
-0.723676
-0.86256
-0.84897
-0.810871
-0.76821
-0.742986
-0.73048
-0.731511
-0.744464
-0.767478
-0.800883
-0.847458
-0.896816
-0.916591
-0.839839
-0.269295
-0.0267872
-0.15845
-0.341612
-0.532668
-0.683754
-0.786418
-0.850705
-0.893412
-0.916315
-0.929526
-0.936373
-0.936126
-0.923673
-0.678751
-0.837234
-0.93552
-0.946133
-0.942702
-0.935914
-0.931262
-0.928996
-0.929196
-0.93175
-0.936354
-0.943216
-0.953263
-0.962252
-0.962239
-0.941581
-0.856576
-0.587323
-0.664817
-0.77275
-0.844
-0.888045
-0.914828
-0.930937
-0.941162
-0.946107
-0.94743
-0.944961
-0.93473
-0.910216
-0.725475
-0.881621
-0.956296
-0.969511
-0.971924
-0.971559
-0.970976
-0.970775
-0.970938
-0.971555
-0.972646
-0.974379
-0.977068
-0.978741
-0.974905
-0.965487
-0.960987
-0.916853
-0.875423
-0.895304
-0.915684
-0.930564
-0.939873
-0.944827
-0.946455
-0.944543
-0.939097
-0.928414
-0.90312
-0.878964
-0.654183
-0.899269
-0.963106
-0.976721
-0.980543
-0.981684
-0.982085
-0.982389
-0.982584
-0.982806
-0.983128
-0.983699
-0.984656
-0.984668
-0.979608
-0.972662
-0.979698
-0.970151
-0.932871
-0.927615
-0.932145
-0.937108
-0.939465
-0.938426
-0.933752
-0.924668
-0.910367
-0.887977
-0.844099
-0.85781
-0.165653
-0.901312
-0.965742
-0.979037
-0.983561
-0.985241
-0.985983
-0.986496
-0.986751
-0.986906
-0.987064
-0.987425
-0.988053
-0.987667
-0.982099
-0.974705
-0.984631
-0.983072
-0.958579
-0.942726
-0.93662
-0.933979
-0.929794
-0.922002
-0.90944
-0.891298
-0.867528
-0.835555
-0.797118
-0.849191
-0.0384484
-0.886224
-0.962618
-0.980349
-0.985508
-0.987081
-0.98782
-0.988473
-0.988839
-0.98906
-0.989309
-0.989987
-0.990919
-0.990402
-0.985328
-0.974957
-0.986292
-0.987327
-0.972758
-0.955781
-0.941526
-0.931231
-0.919989
-0.904897
-0.884426
-0.858667
-0.829803
-0.799045
-0.789692
-0.847364
-8.11407e-05
-0.83646
-0.947723
-0.976332
-0.984854
-0.988253
-0.989987
-0.991064
-0.991594
-0.991833
-0.991905
-0.991915
-0.991721
-0.989954
-0.98454
-0.974392
-0.986937
-0.989576
-0.980782
-0.967032
-0.950449
-0.93381
-0.916872
-0.896
-0.86992
-0.840003
-0.810021
-0.792833
-0.800265
-0.847086
-0.338616
-0.688703
-0.898906
-0.960117
-0.977562
-0.984549
-0.988073
-0.989866
-0.990749
-0.991111
-0.991102
-0.99072
-0.989509
-0.984399
-0.974974
-0.970335
-0.986474
-0.990467
-0.985621
-0.975477
-0.960887
-0.942205
-0.921789
-0.897823
-0.868854
-0.837133
-0.807366
-0.80029
-0.809529
-0.844574
-0.6626
-0.329725
-0.705006
-0.893103
-0.946505
-0.967152
-0.977058
-0.981359
-0.983526
-0.984378
-0.984185
-0.982667
-0.97781
-0.954067
-0.905599
-0.955071
-0.984341
-0.990097
-0.98837
-0.981008
-0.969515
-0.953201
-0.932062
-0.907237
-0.877365
-0.844805
-0.815323
-0.808699
-0.81558
-0.839972
-0.765515
-0.0383291
-0.184262
-0.547383
-0.761748
-0.861318
-0.9055
-0.926269
-0.93662
-0.940362
-0.938407
-0.928058
-0.894362
-0.711548
-0.0517567
-0.901092
-0.978702
-0.988223
-0.988865
-0.984389
-0.9756
-0.962658
-0.943896
-0.919702
-0.890069
-0.856993
-0.827615
-0.816226
-0.818477
-0.833297
-0.786341
-0.000133807
-0.0028237
-0.0383186
-0.126204
-0.251248
-0.357034
-0.439771
-0.491305
-0.50998
-0.493295
-0.428786
-0.302327
-0.151297
-0.275056
-0.70091
-0.963413
-0.983026
-0.985822
-0.98473
-0.978627
-0.96827
-0.952743
-0.930289
-0.901248
-0.867268
-0.835764
-0.817769
-0.815056
-0.822063
-0.767388
-0.00205834
-4.04179e-06
-4.43945e-05
-0.000429467
-0.00141905
-0.00304377
-0.00506197
-0.0069462
-0.00807815
-0.00815108
-0.00737321
-0.00757283
-0.00568145
-0.0365398
-0.429911
-0.917031
-0.968858
-0.976565
-0.979032
-0.976554
-0.96798
-0.954125
-0.932816
-0.903106
-0.866227
-0.829365
-0.804779
-0.797943
-0.799411
-0.710471
-0.00391131
-0.000424934
-9.46626e-05
-4.04295e-05
-2.40116e-05
-1.56293e-05
-1.12428e-05
-9.65143e-06
-1.1468e-05
-2.03978e-05
-5.38454e-05
-0.00029287
-0.0057324
-0.00397938
-0.313913
-0.768976
-0.925685
-0.948538
-0.956875
-0.959475
-0.954223
-0.939575
-0.91576
-0.880627
-0.835334
-0.789729
-0.760459
-0.752871
-0.751524
-0.590175
-0.00368347
-0.000891064
-0.00045331
-0.000369629
-0.000359101
-0.00036539
-0.000392377
-0.000449955
-0.000558721
-0.000752559
-0.00111589
-0.00209723
-0.0109423
-0.0122604
-0.181597
-0.454947
-0.787355
-0.858859
-0.884349
-0.891086
-0.892435
-0.875803
-0.841194
-0.789248
-0.727437
-0.67719
-0.654955
-0.653145
-0.64887
-0.350944
-0.00264281
-0.000795009
-0.000474181
-0.000411618
-0.000424232
-0.000450215
-0.000494316
-0.000568257
-0.00069283
-0.00089787
-0.00125135
-0.00206163
-0.00837082
-0.00823258
-0.0828547
-0.199333