/*--------------------------------*- C++ -*----------------------------------*\
| =========                 |                                                 |
| \\      /  F ield         | OpenFOAM: The Open Source CFD Toolbox           |
|  \\    /   O peration     | Version:  2212                                  |
|   \\  /    A nd           | Website:  www.openfoam.com                      |
|    \\/     M anipulation  |                                                 |
\*---------------------------------------------------------------------------*/
FoamFile
{
    version     2.0;
    format      ascii;
    arch        "LSB;label=32;scalar=64";
    class       volScalarField;
    location    "10000";
    object      theta1_Scaled_;
}
// * * * * * * * * * * * * * * * * * * * * * * * * * * * * * * * * * * * * * //

dimensions      [0 0 0 0 0 0 0];

internalField   nonuniform List<scalar> 
18080
(
0.125852
0.524855
0.740422
0.847534
0.903903
0.936375
0.956238
0.968926
0.977322
0.983072
0.987218
0.990248
0.992488
0.994162
0.995423
0.996381
0.997115
0.997681
0.998123
0.998469
0.998743
0.998963
0.999139
0.999282
0.999398
0.999492
0.999567
0.999627
0.999673
0.999708
0.999734
0.999751
0.99976
0.999763
0.999758
0.999744
0.999721
0.999684
0.999629
0.999546
0.999425
0.999243
0.998969
0.998558
0.997943
0.997039
0.995736
0.99392
0.155289
0.525277
0.729824
0.83744
0.895732
0.929863
0.951021
0.964726
0.973939
0.980333
0.984986
0.988475
0.991118
0.993135
0.994681
0.99587
0.996787
0.997493
0.998038
0.998459
0.998783
0.999033
0.999225
0.999373
0.999487
0.999575
0.999642
0.999693
0.999732
0.99976
0.999781
0.999794
0.9998
0.999801
0.999795
0.999782
0.999759
0.999723
0.99967
0.99959
0.999472
0.999296
0.999032
0.998637
0.998054
0.997219
0.996062
0.994554
0.145688
0.513
0.722839
0.833505
0.893433
0.928503
0.950227
0.964277
0.973701
0.980222
0.984944
0.988469
0.991126
0.993145
0.994686
0.995867
0.996775
0.997474
0.998013
0.998428
0.998749
0.998997
0.999189
0.999337
0.999453
0.999542
0.99961
0.999663
0.999704
0.999734
0.999756
0.99977
0.999778
0.999779
0.999773
0.99976
0.999736
0.999699
0.999644
0.999561
0.999438
0.999254
0.998977
0.998563
0.997947
0.997055
0.995801
0.994146
0.156139
0.515583
0.722996
0.83317
0.893092
0.928236
0.950026
0.964125
0.973584
0.980129
0.984866
0.988405
0.991074
0.993102
0.994653
0.995842
0.996757
0.997462
0.998005
0.998425
0.998749
0.998999
0.999193
0.999342
0.999458
0.999548
0.999617
0.99967
0.999711
0.999741
0.999763
0.999778
0.999785
0.999787
0.999782
0.999768
0.999746
0.99971
0.999655
0.999575
0.999454
0.999272
0.998997
0.99858
0.997953
0.99703
0.9957
0.993902
0.163552
0.514644
0.721723
0.832275
0.892501
0.927843
0.949762
0.963945
0.973459
0.980043
0.984805
0.98836
0.991042
0.99308
0.994636
0.99583
0.996748
0.997454
0.997999
0.998419
0.998744
0.998995
0.999188
0.999338
0.999454
0.999544
0.999614
0.999667
0.999707
0.999738
0.999759
0.999774
0.999782
0.999783
0.999777
0.999764
0.99974
0.999703
0.999648
0.999565
0.99944
0.999252
0.998967
0.998532
0.997873
0.996891
0.995455
0.99348
0.180868
0.517795
0.722196
0.832159
0.892293
0.927655
0.949614
0.963836
0.973378
0.979982
0.984758
0.988324
0.991014
0.993058
0.994619
0.995817
0.996737
0.997446
0.997993
0.998414
0.99874
0.998992
0.999186
0.999337
0.999453
0.999543
0.999613
0.999667
0.999707
0.999738
0.99976
0.999774
0.999782
0.999784
0.999778
0.999765
0.999742
0.999705
0.99965
0.999568
0.999444
0.999256
0.99897
0.998533
0.997864
0.996858
0.995366
0.993281
0.206926
0.522903
0.723199
0.832195
0.892129
0.927478
0.949467
0.963721
0.973293
0.979918
0.984708
0.988285
0.990984
0.993035
0.994601
0.995803
0.996726
0.997438
0.997986
0.998409
0.998736
0.998988
0.999184
0.999335
0.999451
0.999542
0.999612
0.999666
0.999706
0.999737
0.999759
0.999774
0.999782
0.999783
0.999778
0.999764
0.999741
0.999704
0.999648
0.999565
0.99944
0.999249
0.998958
0.998509
0.997818
0.996767
0.995188
0.992948
0.24464
0.531519
0.725464
0.832702
0.892156
0.927384
0.949355
0.963621
0.973212
0.979854
0.984656
0.988244
0.990951
0.993009
0.994581
0.995787
0.996714
0.997428
0.997978
0.998403
0.998731
0.998985
0.999181
0.999332
0.99945
0.99954
0.999611
0.999665
0.999706
0.999736
0.999759
0.999773
0.999782
0.999783
0.999778
0.999764
0.999741
0.999705
0.999649
0.999566
0.99944
0.999249
0.998955
0.9985
0.997795
0.996714
0.995067
0.992704
0.29647
0.544572
0.729285
0.833749
0.892379
0.927362
0.949268
0.963527
0.973127
0.979784
0.984597
0.988195
0.990912
0.992977
0.994556
0.995767
0.996699
0.997416
0.997969
0.998396
0.998725
0.99898
0.999177
0.999329
0.999447
0.999539
0.999609
0.999664
0.999705
0.999736
0.999758
0.999773
0.999781
0.999783
0.999778
0.999765
0.999741
0.999705
0.999649
0.999566
0.99944
0.999247
0.99895
0.998486
0.997761
0.996637
0.994902
0.992378
0.3632
0.563255
0.735203
0.835548
0.892883
0.927447
0.94922
0.963443
0.973041
0.979706
0.984529
0.988138
0.990865
0.992939
0.994525
0.995743
0.996679
0.997401
0.997957
0.998387
0.998718
0.998975
0.999173
0.999326
0.999445
0.999537
0.999608
0.999663
0.999704
0.999735
0.999758
0.999773
0.999781
0.999783
0.999778
0.999765
0.999742
0.999706
0.999651
0.999568
0.999441
0.999248
0.998947
0.998475
0.99773
0.996563
0.994735
0.992041
0.441839
0.588225
0.743673
0.8383
0.893747
0.927668
0.949219
0.963369
0.972949
0.979617
0.984448
0.988068
0.990805
0.992891
0.994486
0.995712
0.996655
0.997382
0.997943
0.998375
0.99871
0.998968
0.999168
0.999322
0.999442
0.999535
0.999606
0.999661
0.999703
0.999735
0.999758
0.999773
0.999782
0.999784
0.999779
0.999766
0.999744
0.999708
0.999653
0.99957
0.999444
0.99925
0.998946
0.998464
0.997695
0.996473
0.994528
0.99162
0.526087
0.619282
0.754979
0.842196
0.895059
0.928063
0.949278
0.963308
0.97285
0.979514
0.984349
0.98798
0.990731
0.992829
0.994437
0.995672
0.996624
0.997358
0.997924
0.998361
0.998699
0.99896
0.999161
0.999318
0.999439
0.999532
0.999605
0.99966
0.999703
0.999735
0.999758
0.999773
0.999782
0.999785
0.99978
0.999768
0.999746
0.99971
0.999656
0.999574
0.999449
0.999254
0.998947
0.998454
0.997658
0.996372
0.994286
0.991114
0.607993
0.65498
0.769017
0.847336
0.896894
0.92867
0.949415
0.963266
0.972744
0.979392
0.984228
0.987871
0.990637
0.992751
0.994373
0.995622
0.996584
0.997327
0.9979
0.998343
0.998685
0.99895
0.999154
0.999312
0.999435
0.99953
0.999603
0.999659
0.999702
0.999735
0.999758
0.999774
0.999783
0.999786
0.999782
0.99977
0.999749
0.999714
0.999661
0.99958
0.999455
0.999261
0.998951
0.998447
0.997618
0.996253
0.993992
0.990477
0.68054
0.692581
0.785175
0.853676
0.8993
0.929531
0.949655
0.963255
0.972636
0.979252
0.984082
0.987736
0.99052
0.992653
0.994293
0.995558
0.996534
0.997288
0.997871
0.998321
0.998669
0.998937
0.999145
0.999306
0.99943
0.999527
0.999601
0.999658
0.999702
0.999735
0.999759
0.999775
0.999785
0.999788
0.999784
0.999773
0.999752
0.999719
0.999667
0.999588
0.999465
0.999271
0.998959
0.998444
0.997579
0.99612
0.993639
0.989682
0.740033
0.72885
0.802197
0.860857
0.9022
0.930641
0.950006
0.963279
0.972524
0.979092
0.983909
0.987572
0.990375
0.992531
0.994194
0.995479
0.996473
0.997241
0.997835
0.998294
0.998649
0.998923
0.999135
0.999299
0.999425
0.999523
0.999599
0.999657
0.999702
0.999735
0.99976
0.999777
0.999787
0.99979
0.999787
0.999777
0.999757
0.999725
0.999675
0.999598
0.999477
0.999286
0.998973
0.998447
0.997543
0.995976
0.993224
0.988689
0.785866
0.761079
0.818706
0.868406
0.905488
0.932008
0.950497
0.963365
0.972428
0.978922
0.983713
0.987381
0.990206
0.992387
0.994077
0.995386
0.9964
0.997185
0.997793
0.998263
0.998626
0.998907
0.999123
0.999291
0.99942
0.99952
0.999597
0.999657
0.999702
0.999736
0.999761
0.999779
0.999789
0.999794
0.999791
0.999782
0.999763
0.999733
0.999685
0.99961
0.999493
0.999306
0.998994
0.99846
0.997518
0.99583
0.992756
0.987486
0.819411
0.787715
0.833563
0.875838
0.909044
0.933645
0.951172
0.963553
0.972376
0.978762
0.983508
0.987173
0.990015
0.992224
0.993942
0.995278
0.996316
0.997122
0.997745
0.998228
0.998601
0.998888
0.99911
0.999282
0.999415
0.999517
0.999596
0.999656
0.999703
0.999737
0.999763
0.999781
0.999793
0.999798
0.999796
0.999788
0.999771
0.999742
0.999696
0.999625
0.999513
0.999331
0.999025
0.998487
0.997512
0.995698
0.99226
0.986098
0.842459
0.807848
0.845718
0.882533
0.912606
0.935464
0.952005
0.963834
0.972364
0.978608
0.983291
0.986945
0.989802
0.992039
0.993789
0.995156
0.996221
0.997049
0.997691
0.998188
0.998572
0.998868
0.999097
0.999273
0.999409
0.999514
0.999594
0.999656
0.999704
0.999739
0.999766
0.999784
0.999796
0.999802
0.999802
0.999794
0.999778
0.999752
0.999709
0.999642
0.999536
0.999362
0.999064
0.998532
0.997535
0.995612
0.991813
0.984691
0.856886
0.82144
0.854701
0.888156
0.916041
0.937433
0.952997
0.964216
0.972399
0.978467
0.983067
0.986698
0.989568
0.991834
0.993618
0.995019
0.996114
0.996967
0.99763
0.998143
0.99854
0.998845
0.999081
0.999262
0.999402
0.99951
0.999592
0.999656
0.999705
0.999741
0.999769
0.999788
0.999801
0.999807
0.999807
0.999801
0.999787
0.999762
0.999723
0.999661
0.999562
0.999398
0.999115
0.9986
0.997608
0.995623
0.991562
0.983672
0.864084
0.828877
0.860506
0.892691
0.91938
0.939585
0.954166
0.96471
0.972493
0.978349
0.982844
0.986443
0.989321
0.991614
0.993434
0.99487
0.995997
0.996879
0.997564
0.998095
0.998505
0.998821
0.999064
0.999251
0.999395
0.999506
0.999591
0.999656
0.999706
0.999743
0.999771
0.999791
0.999805
0.999812
0.999813
0.999808
0.999796
0.999774
0.999738
0.999681
0.99959
0.999438
0.999176
0.998689
0.997729
0.995748
0.991581
0.983324
0.864959
0.830613
0.863415
0.896386
0.922781
0.941978
0.955522
0.965317
0.972647
0.978261
0.982631
0.986186
0.989066
0.991385
0.993239
0.994713
0.995874
0.996784
0.997493
0.998043
0.998468
0.998795
0.999047
0.99924
0.999389
0.999502
0.99959
0.999656
0.999707
0.999746
0.999774
0.999795
0.999809
0.999817
0.999819
0.999816
0.999805
0.999785
0.999752
0.999701
0.999618
0.99948
0.999241
0.998792
0.997888
0.995965
0.99184
0.983634
0.859947
0.827061
0.863937
0.899714
0.926478
0.944661
0.95705
0.96602
0.972858
0.978203
0.982434
0.985935
0.98881
0.991153
0.993041
0.99455
0.995747
0.996687
0.997421
0.997991
0.998431
0.99877
0.999029
0.999229
0.999381
0.999498
0.999588
0.999656
0.999708
0.999748
0.999777
0.999799
0.999813
0.999822
0.999825
0.999823
0.999813
0.999796
0.999766
0.99972
0.999645
0.999522
0.999307
0.998902
0.998067
0.996238
0.992255
0.984409
0.849048
0.818446
0.862694
0.903229
0.930645
0.947611
0.958695
0.966784
0.973109
0.978172
0.982255
0.985696
0.988564
0.990923
0.992844
0.99439
0.99562
0.996591
0.99735
0.997939
0.998394
0.998743
0.999012
0.999217
0.999374
0.999494
0.999586
0.999656
0.999709
0.999749
0.99978
0.999802
0.999817
0.999826
0.99983
0.999829
0.999821
0.999806
0.999779
0.999737
0.99967
0.99956
0.999369
0.999008
0.998246
0.996515
0.992693
0.985317
0.832363
0.80502
0.8605
0.907458
0.93531
0.950715
0.960368
0.967563
0.973377
0.978157
0.982102
0.985473
0.988326
0.990703
0.992655
0.994236
0.9955
0.996499
0.997281
0.997889
0.998358
0.998718
0.998994
0.999206
0.999367
0.99949
0.999584
0.999656
0.99971
0.999751
0.999782
0.999805
0.99982
0.999831
0.999835
0.999835
0.999829
0.999815
0.999791
0.999753
0.999692
0.999594
0.999426
0.999107
0.998414
0.996762
0.993071
0.986192
0.809943
0.786845
0.858199
0.912665
0.9403
0.953797
0.961976
0.968316
0.973642
0.978156
0.981954
0.985262
0.988103
0.990498
0.992479
0.994092
0.995385
0.996411
0.997215
0.997841
0.998323
0.998694
0.998978
0.999195
0.99936
0.999486
0.999583
0.999656
0.99971
0.999752
0.999784
0.999807
0.999823
0.999834
0.99984
0.999841
0.999836
0.999823
0.999801
0.999766
0.999712
0.999624
0.999476
0.999196
0.998565
0.996965
0.993367
0.987022
0.782384
0.764282
0.856797
0.918823
0.945327
0.956686
0.963446
0.96901
0.973908
0.978154
0.981816
0.98507
0.987903
0.99031
0.992315
0.993956
0.995278
0.996328
0.997153
0.997795
0.998291
0.998671
0.998962
0.999184
0.999353
0.999482
0.99958
0.999655
0.99971
0.999753
0.999786
0.999809
0.999826
0.999838
0.999844
0.999846
0.999842
0.99983
0.99981
0.999778
0.999728
0.99965
0.999519
0.999275
0.998697
0.997117
0.993578
0.987852
0.75076
0.737598
0.856959
0.925522
0.95007
0.959244
0.96473
0.969627
0.974113
0.978126
0.981687
0.984889
0.987711
0.990128
0.992157
0.993825
0.995173
0.996247
0.997091
0.997749
0.998257
0.998646
0.998944
0.999171
0.999345
0.999476
0.999577
0.999653
0.99971
0.999753
0.999787
0.999811
0.999828
0.999841
0.999847
0.99985
0.999847
0.999836
0.999817
0.999787
0.999741
0.99967
0.999555
0.999339
0.998801
0.997172
0.993518
0.988113
0.717216
0.707864
0.859019
0.932138
0.954204
0.961306
0.965714
0.970069
0.974173
0.978004
0.981469
0.984626
0.987443
0.989879
0.991939
0.993641
0.995022
0.996127
0.996997
0.997677
0.998202
0.998605
0.998914
0.99915
0.999329
0.999465
0.999569
0.999648
0.999706
0.999751
0.999786
0.99981
0.999828
0.999842
0.999849
0.999852
0.99985
0.99984
0.999822
0.999794
0.999751
0.999685
0.999582
0.999389
0.998877
0.997119
0.993036
0.986978
0.683279
0.675651
0.862551
0.9381
0.957521
0.962718
0.966214
0.970037
0.973841
0.977504
0.980891
0.984012
0.986852
0.989343
0.991476
0.993255
0.994712
0.995883
0.996811
0.997536
0.998097
0.998528
0.998857
0.999108
0.999299
0.999443
0.999553
0.999636
0.999697
0.999744
0.99978
0.999806
0.999825
0.99984
0.999847
0.999852
0.99985
0.999841
0.999824
0.999797
0.999758
0.999701
0.999618
0.999464
0.99902
0.99736
0.993901
0.989783
0.649374
0.642315
0.867199
0.943347
0.960265
0.963809
0.9666
0.969949
0.973484
0.977003
0.980335
0.983431
0.986302
0.988852
0.991063
0.992946
0.994481
0.995709
0.996676
0.99743
0.998011
0.998456
0.998796
0.999055
0.999253
0.999403
0.999518
0.999605
0.999669
0.999719
0.999758
0.999786
0.999806
0.999823
0.999831
0.999838
0.999837
0.999829
0.999814
0.999793
0.999763
0.999723
0.999661
0.999485
0.998722
0.994502
0.973846
0.973231
0.620115
0.612649
0.872761
0.94778
0.962491
0.964684
0.966987
0.970016
0.973346
0.976777
0.98026
0.983474
0.986386
0.988891
0.990984
0.992672
0.994008
0.995047
0.995851
0.996478
0.996974
0.997376
0.99771
0.997993
0.998238
0.998449
0.998634
0.998793
0.998913
0.999021
0.999113
0.999178
0.999227
0.999278
0.999298
0.999319
0.999311
0.999278
0.999227
0.999145
0.999008
0.998764
0.998237
0.996341
0.986408
0.922878
0.891326
0.943694
0.594234
0.583979
0.877551
0.950718
0.963613
0.964774
0.966826
0.969837
0.973269
0.976711
0.979662
0.981747
0.982827
0.982891
0.98215
0.980937
0.979629
0.978535
0.977874
0.977751
0.978149
0.97899
0.980148
0.981488
0.982934
0.984407
0.985849
0.987162
0.988124
0.989055
0.989849
0.990331
0.990594
0.990782
0.990433
0.990035
0.988957
0.987474
0.986198
0.985981
0.986601
0.987123
0.98656
0.981979
0.966053
0.931296
0.875228
0.745922
0.570101
0.560838
0.879771
0.950253
0.96199
0.961932
0.963593
0.966126
0.967592
0.966248
0.961412
0.95368
0.944263
0.934399
0.925223
0.917455
0.911672
0.908089
0.906723
0.907373
0.909572
0.91289
0.916859
0.92109
0.92531
0.929277
0.933013
0.936088
0.937895
0.940114
0.942362
0.94388
0.945449
0.947366
0.947903
0.948058
0.940123
0.914557
0.838687
0.780831
0.882531
0.930226
0.941505
0.932783
0.901754
0.855625
0.8097
0.747633
0.555482
0.563886
0.874771
0.941301
0.953187
0.95262
0.953445
0.951012
0.943778
0.9333
0.921484
0.909559
0.898029
0.887011
0.876574
0.866779
0.857963
0.850462
0.844831
0.841251
0.839428
0.839036
0.839594
0.840668
0.841891
0.843005
0.844128
0.84387
0.841176
0.838512
0.83586
0.834686
0.841416
0.859702
0.882045
0.900853
0.902634
0.868214
0.754148
0.562519
0.540938
0.603735
0.640969
0.669778
0.70872
0.724703
0.718613
0.706312
0.562637
0.65195
0.877295
0.929929
0.942449
0.943952
0.942487
0.935899
0.926809
0.91711
0.907346
0.897488
0.887466
0.877355
0.867403
0.857871
0.849099
0.841302
0.834945
0.829966
0.826089
0.823027
0.820433
0.818035
0.815564
0.81288
0.810069
0.80615
0.800503
0.791133
0.771362
0.739917
0.705618
0.69825
0.733001
0.774396
0.801299
0.828842
0.850589
0.872515
0.892421
0.907419
0.918536
0.926112
0.931003
0.93137
0.925533
0.916537
0.671608
0.83654
0.905655
0.9301
0.939955
0.942127
0.93711
0.929471
0.92105
0.912409
0.903315
0.893967
0.884982
0.876779
0.869547
0.863379
0.858323
0.854231
0.850838
0.847863
0.845341
0.843111
0.841013
0.838963
0.836844
0.834561
0.8321
0.829391
0.82711
0.823302
0.809582
0.780881
0.731421
0.657461
0.644776
0.709513
0.784633
0.870083
0.912846
0.932449
0.941947
0.945781
0.946536
0.944761
0.941862
0.938876
0.933994
0.92955
0.836303
0.903372
0.922537
0.935233
0.941724
0.94008
0.933527
0.92487
0.913892
0.901346
0.890428
0.88239
0.876736
0.873178
0.871452
0.870667
0.869962
0.86921
0.86837
0.867341
0.866038
0.864527
0.862905
0.86125
0.859572
0.857814
0.855924
0.853979
0.853281
0.854065
0.851891
0.839307
0.812038
0.764828
0.742025
0.781255
0.83092
0.869859
0.890208
0.89978
0.902481
0.901311
0.895445
0.884981
0.87518
0.869816
0.865915
0.867627
0.899664
0.920539
0.930433
0.939386
0.942506
0.93682
0.923014
0.909143
0.899274
0.89045
0.88334
0.878527
0.875584
0.874123
0.873752
0.874391
0.876082
0.878045
0.879418
0.879893
0.879522
0.878635
0.877482
0.876235
0.874989
0.873741
0.87245
0.871033
0.870373
0.871934
0.876583
0.876593
0.867401
0.845196
0.820189
0.82012
0.832739
0.818612
0.791338
0.767052
0.744949
0.723002
0.697988
0.680896
0.690199
0.714551
0.737552
0.760799
0.914594
0.925962
0.932937
0.939283
0.937642
0.922907
0.910688
0.900038
0.892939
0.888042
0.884715
0.882683
0.8815
0.880798
0.880229
0.879989
0.880394
0.881018
0.881582
0.882031
0.882214
0.882137
0.881909
0.881541
0.881091
0.88057
0.879944
0.879163
0.878401
0.878633
0.882629
0.889893
0.893092
0.885819
0.858402
0.826696
0.804236
0.756046
0.685106
0.606886
0.539758
0.501015
0.501962
0.5487
0.623628
0.687937
0.729649
0.756096
0.917316
0.925503
0.927545
0.928972
0.926092
0.914008
0.903489
0.895974
0.891979
0.890119
0.889185
0.888817
0.888668
0.888517
0.888064
0.887445
0.886804
0.886083
0.885354
0.88467
0.883944
0.883236
0.882331
0.881341
0.88032
0.879346
0.878467
0.877633
0.876706
0.875617
0.875474
0.881836
0.890358
0.894176
0.877592
0.843024
0.807145
0.756124
0.688656
0.616101
0.564973
0.556384
0.591315
0.646526
0.708089
0.755268
0.785174
0.804433
0.914522
0.916454
0.921086
0.922819
0.916385
0.903783
0.894976
0.890778
0.889711
0.890157
0.891136
0.892223
0.893187
0.893923
0.893929
0.893522
0.892933
0.892173
0.891268
0.890195
0.888888
0.887554
0.886123
0.884693
0.883337
0.881857
0.880443
0.879159
0.877983
0.876567
0.874245
0.87436
0.880972
0.888024
0.886122
0.870661
0.84207
0.801642
0.756596
0.717247
0.698137
0.705582
0.734084
0.773305
0.810044
0.83567
0.850641
0.859373
0.903909
0.907281
0.909066
0.905938
0.895467
0.884587
0.880175
0.8801
0.882131
0.884729
0.88727
0.889528
0.891413
0.89291
0.893974
0.894696
0.895127
0.895282
0.895197
0.894741
0.893705
0.89255
0.8913
0.890008
0.888722
0.887279
0.88575
0.88434
0.883044
0.881763
0.87979
0.876757
0.876296
0.881963
0.886889
0.889757
0.881633
0.865032
0.845153
0.829881
0.826126
0.832613
0.846945
0.865129
0.878668
0.885956
0.886999
0.886475
0.878461
0.882572
0.873408
0.854553
0.839575
0.83847
0.843915
0.850687
0.857701
0.864043
0.869597
0.874405
0.878528
0.882024
0.884964
0.887584
0.889691
0.8913
0.892458
0.893198
0.893559
0.893652
0.893508
0.893161
0.892655
0.891813
0.890503
0.889205
0.887972
0.886899
0.885747
0.88367
0.880047
0.878808
0.885421
0.890688
0.894888
0.895226
0.891734
0.887956
0.88704
0.887919
0.889326
0.891445
0.893203
0.89335
0.89008
0.886249
0.835312
0.813433
0.768708
0.70398
0.682017
0.711665
0.741244
0.764386
0.783127
0.798851
0.812373
0.824193
0.83463
0.843877
0.852095
0.859791
0.866432
0.872061
0.876742
0.880551
0.883581
0.885924
0.887882
0.889299
0.890203
0.89067
0.890784
0.89065
0.890322
0.88993
0.889514
0.88881
0.886515
0.881472
0.883978
0.887495
0.889272
0.890664
0.89103
0.890387
0.889496
0.888771
0.887608
0.885988
0.885205
0.883421
0.879627
0.874725
0.726406
0.611872
0.485398
0.354919
0.33305
0.40196
0.466381
0.518164
0.561525
0.599544
0.633671
0.664706
0.693131
0.71916
0.742845
0.764376
0.783709
0.800911
0.816056
0.829241
0.840592
0.850278
0.859021
0.866298
0.872156
0.876759
0.880279
0.882866
0.884621
0.885719
0.886579
0.88716
0.886969
0.884279
0.882251
0.885609
0.886946
0.885641
0.884165
0.883357
0.883263
0.882803
0.881688
0.879847
0.87781
0.87482
0.871723
0.866987
0.405783
0.223086
0.126389
0.0680697
0.0622846
0.0908336
0.122635
0.153734
0.185021
0.217593
0.252014
0.288629
0.327664
0.369024
0.412219
0.456588
0.501493
0.546031
0.589175
0.629927
0.667451
0.701316
0.731446
0.757753
0.780397
0.799624
0.815771
0.829287
0.840404
0.849461
0.857443
0.864053
0.869269
0.872696
0.87375
0.875687
0.878248
0.87864
0.878655
0.878641
0.878625
0.878139
0.877211
0.876273
0.875003
0.87279
0.87176
0.869265
0.0665444
0.0206343
0.0098238
0.00505476
0.0045521
0.00737013
0.0106972
0.0142262
0.0181067
0.0225444
0.0277315
0.0338914
0.041315
0.0503366
0.0613238
0.0747174
0.0910943
0.111081
0.1353
0.164289
0.198362
0.237647
0.281758
0.33009
0.381501
0.434262
0.486476
0.536775
0.583227
0.624824
0.661793
0.693591
0.720475
0.743542
0.760785
0.77359
0.785508
0.796392
0.804997
0.811291
0.816512
0.819878
0.820832
0.819233
0.815962
0.814992
0.817226
0.820434
0.0018892
0.000428662
0.00019651
9.64698e-05
9.71066e-05
0.000167157
0.00024995
0.000338843
0.000438201
0.00055381
0.00069137
0.000857857
0.00106285
0.00131815
0.00163828
0.0020425
0.00255804
0.00322063
0.00407626
0.00518419
0.00661839
0.00847775
0.0108824
0.0139991
0.0180373
0.0232375
0.0298791
0.0383566
0.0489072
0.0617856
0.0773858
0.0955978
0.116192
0.140068
0.164792
0.187387
0.211454
0.235678
0.259089
0.28122
0.301308
0.316277
0.3243
0.319747
0.305858
0.30479
0.319171
0.354666
0.0298214
0.00773788
0.00390661
0.00278762
0.0023186
0.00209222
0.0020029
0.00203791
0.00218505
0.00245946
0.00294025
0.00392429
0.00735869
0.0129917
0.0038638
2.38861e-05
5.87533e-05
0.000149402
0.00053022
0.00116504
0.00217902
0.00386936
0.00673603
0.0115956
0.019624
0.0325174
0.0534131
0.0911764
0.168587
0.36029
0.267236
0.195945
0.125169
0.0940881
0.0793697
0.0719674
0.068831
0.0695177
0.0735326
0.081171
0.0944486
0.120703
0.190229
0.269819
0.123582
0.000781848
0.000185044
0.00724803
0.0198132
0.0387376
0.0660472
0.105638
0.161044
0.249176
0.339182
0.432326
0.522046
0.604236
0.670872
0.680135
0.551005
0.601447
0.531118
0.466047
0.415061
0.392056
0.381517
0.38294
0.394623
0.416225
0.45081
0.508855
0.603762
0.667637
0.514219
0.0671432
0.00622567
0.0893147
0.174467
0.270437
0.370533
0.469483
0.559859
0.645826
0.704846
0.748024
0.779104
0.798733
0.804629
0.689
0.697148
0.779659
0.770239
0.745417
0.720236
0.706263
0.69953
0.700081
0.707068
0.719825
0.739316
0.76923
0.805835
0.822613
0.762017
0.460809
0.189916
0.380388
0.50468
0.601599
0.675296
0.730753
0.771501
0.803733
0.823959
0.837039
0.844302
0.843587
0.834036
0.628281
0.76381
0.843183
0.855601
0.85153
0.843846
0.838839
0.836467
0.836676
0.839355
0.844331
0.852137
0.864624
0.876422
0.875188
0.848147
0.774718
0.627642
0.665823
0.722904
0.76692
0.799365
0.822585
0.838575
0.849864
0.855763
0.857458
0.854601
0.842751
0.835216
0.826313
0.796075
0.868373
0.888535
0.89269
0.892059
0.891052
0.890706
0.890985
0.892054
0.893973
0.89711
0.902253
0.904781
0.895462
0.879609
0.874643
0.824252
0.789478
0.805384
0.823428
0.838217
0.848424
0.85428
0.856404
0.854435
0.848785
0.838915
0.818816
0.848959
0.933338
0.811087
0.877986
0.901523
0.909384
0.9119
0.912805
0.913496
0.913942
0.914452
0.915198
0.916535
0.918873
0.917869
0.903615
0.890792
0.906985
0.889473
0.840592
0.835207
0.83995
0.845412
0.8482
0.84733
0.842843
0.834856
0.824425
0.813371
0.801227
0.881827
0.964144
0.813865
0.881806
0.906148
0.916195
0.920318
0.922219
0.923564
0.924244
0.924659
0.925077
0.926047
0.927824
0.925408
0.907291
0.893251
0.918108
0.914908
0.871804
0.851768
0.844917
0.842238
0.838226
0.83127
0.821523
0.81055
0.801845
0.801135
0.816659
0.9062
0.973134
0.803308
0.876589
0.908864
0.920953
0.925111
0.927158
0.929018
0.930086
0.930738
0.931471
0.933528
0.936545
0.933163
0.912672
0.891782
0.922143
0.925632
0.894081
0.868153
0.850576
0.839653
0.829234
0.817398
0.804973
0.795455
0.79432
0.808843
0.843947
0.91714
0.974443
0.771636
0.855452
0.900576
0.919256
0.928347
0.933546
0.937023
0.938816
0.939642
0.939877
0.939869
0.939208
0.93081
0.905651
0.887739
0.923564
0.932108
0.909794
0.884632
0.861408
0.842685
0.827091
0.811933
0.798822
0.792533
0.798372
0.823932
0.862917
0.919406
0.971434
0.69883
0.803478
0.873472
0.902974
0.918467
0.927792
0.933123
0.935938
0.937122
0.937058
0.935716
0.931904
0.913025
0.870037
0.8751
0.921843
0.934849
0.921147
0.89925
0.875516
0.852157
0.832327
0.814881
0.801353
0.796957
0.80617
0.835412
0.872245
0.916715
0.964745
0.549071
0.672962
0.801822
0.855349
0.884278
0.901932
0.910929
0.915899
0.917925
0.917369
0.913568
0.903124
0.851833
0.712253
0.840069
0.915585
0.933586
0.928569
0.910457
0.888889
0.865651
0.842856
0.823456
0.808874
0.804249
0.813758
0.841754
0.875479
0.911548
0.954544
0.327789
0.369476
0.603075
0.713911
0.777356
0.812878
0.832675
0.843679
0.847811
0.8453
0.8334
0.802803
0.655279
0.0357518
0.754252
0.901419
0.927821
0.929997
0.918261
0.899713
0.878779
0.855916
0.834801
0.818615
0.812359
0.820569
0.845122
0.875647
0.905775
0.941851
0.175524
0.0472789
0.209369
0.341776
0.444363
0.508301
0.551824
0.57747
0.586441
0.577718
0.544462
0.490543
0.464388
0.572101
0.584775
0.871578
0.914195
0.921636
0.919179
0.90577
0.887617
0.866896
0.8453
0.827722
0.819513
0.825659
0.846725
0.874826
0.901022
0.929183
0.134945
0.0196337
0.00839953
0.0260959
0.0481179
0.0705434
0.0904839
0.106285
0.116874
0.123539
0.133608
0.211923
0.534147
0.757917
0.51816
0.811641
0.886354
0.901264
0.90669
0.902044
0.887688
0.869471
0.84909
0.831257
0.822204
0.827376
0.847213
0.874539
0.898704
0.919705
0.123834
0.0616538
0.0229602
0.0158467
0.0150832
0.0166153
0.0205619
0.0280033
0.0410172
0.0639388
0.108296
0.220913
0.567086
0.787653
0.629379
0.704967
0.832461
0.859723
0.871492
0.875696
0.869731
0.854942
0.837381
0.82182
0.81558
0.824505
0.847666
0.876593
0.900234
0.915747
0.110049
0.0734301
0.0407991
0.035104
0.0358485
0.0383061
0.0429821
0.0510604
0.0648026
0.0886451
0.134089
0.236891
0.556439
0.781909
0.703533
0.580404
0.738154
0.784914
0.805116
0.812471
0.816582
0.810121
0.799333
0.792369
0.797946
0.819648
0.85121
0.8826
0.905528
0.916798
0.0928446
0.0675589
0.0417306
0.0367375
0.0384165
0.0415957
0.0467532
0.0551319
0.0689213
0.0924658
0.137191
0.233168
0.527948
0.763204
0.729129
0.528256
0.609974
0.671325
0.700878
0.713974
0.719698
0.728374
0.73475
0.750541
0.780331
0.819725
0.85831
0.889426
0.91018
0.918162
0.0746113
0.0568748
0.0372439
0.0325657
0.0344726
0.0378696
0.0431257
0.0515575
0.0652715
0.0884794
0.132379
0.222707
0.491666
0.737223
0.728527
0.541281
0.506966
0.550419
0.581087
0.602501
0.620605
0.643588
0.677232
0.720995
0.771439
0.820471
0.860543
0.889763
0.908526
0.914536
0.0572735
0.0454842
0.0315921
0.0274105
0.0294147
0.0329659
0.0382898
0.0467418
0.06033
0.0830814
0.12574
0.210169
0.450703
0.70372
0.712387
0.559418
0.464298
0.47306
0.4945
0.521539
0.553886
0.594826
0.646564
0.70471
0.763032
0.814263
0.853844
0.881893
0.899777
0.904807
0.0418959
0.0350654
0.0259581
0.0225368
0.0246205
0.0283239
0.0337275
0.042173
0.0555514
0.0776512
0.118534
0.19653
0.40638
0.661753
0.684832
0.562751
0.452151
0.436564
0.448103
0.475534
0.514755
0.564835
0.624049
0.687919
0.74852
0.799969
0.839285
0.86713
0.884969
0.889504
0.0289284
0.0262799
0.0209014
0.018396
0.0205351
0.0243498
0.0298037
0.03817
0.0512013
0.0723981
0.110934
0.181942
0.359962
0.610316
0.647123
0.551137
0.443498
0.415455
0.420599
0.445913
0.486315
0.539032
0.600645
0.66571
0.726825
0.777928
0.817385
0.845693
0.864028
0.868322
0.0189921
0.0192067
0.0165775
0.0150446
0.0172217
0.0210859
0.0265326
0.0347185
0.0472358
0.0672541
0.102897
0.166415
0.312961
0.549032
0.59942
0.527006
0.42931
0.395514
0.396848
0.419586
0.458602
0.510716
0.571874
0.636077
0.69697
0.748203
0.787812
0.816892
0.836028
0.840211
0.0118354
0.0137651
0.0130682
0.0124499
0.0146396
0.0184723
0.0238289
0.0317135
0.0435345
0.0620977
0.0943708
0.149999
0.267002
0.478841
0.541813
0.491953
0.407837
0.372122
0.370875
0.391055
0.427589
0.477484
0.536642
0.599079
0.658464
0.709724
0.749702
0.779369
0.799349
0.803492
0.00696038
0.0096543
0.0102511
0.0104269
0.0126117
0.0163356
0.0215139
0.028977
0.039927
0.0567863
0.0853301
0.132843
0.223547
0.402586
0.475126
0.446976
0.379067
0.344366
0.341212
0.358866
0.392348
0.438955
0.494833
0.554325
0.611205
0.66122
0.701698
0.732228
0.752785
0.756839
0.0039017
0.0066742
0.00804005
0.00883833
0.0109988
0.0145402
0.0194469
0.0263719
0.0362942
0.0512469
0.075848
0.115265
0.183685
0.325034
0.401563
0.393304
0.343373
0.312392
0.308029
0.323177
0.353222
0.395669
0.447048
0.502201
0.555603
0.602837
0.642037
0.673056
0.694499
0.698625
0.00214912
0.00457963
0.00630798
0.00754225
0.00965947
0.0129578
0.0175033
0.0237857
0.032556
0.0454676
0.0660787
0.0977243
0.148041
0.251886
0.325039
0.333154
0.301588
0.276724
0.272095
0.284842
0.311174
0.348746
0.3945
0.443935
0.492257
0.535728
0.572219
0.601546
0.622315
0.626979
0.00128635
0.003166
0.0049569
0.0064402
0.00848766
0.0114957
0.015599
0.0211514
0.0286874
0.0395066
0.0562489
0.0807656
0.11686
0.188041
0.250823
0.270095
0.255365
0.23826
0.234502
0.245121
0.267603
0.299801
0.339051
0.381606
0.423493
0.461609
0.494186
0.520905
0.539799
0.543786
0.00100414
0.00226368
0.00391731
0.00547378
0.0074099
0.0100922
0.0136893
0.0184496
0.0247213
0.0334909
0.0466447
0.0649431
0.0901675
0.136153
0.184364
0.208735
0.207345
0.198411
0.196569
0.205517
0.224195
0.250811
0.283098
0.318069
0.352618
0.384311
0.41173
0.434589
0.450921
0.45391
0.00108723
0.00173654
0.00314578
0.00462724
0.00639628
0.00872579
0.0117766
0.0157178
0.0207538
0.02761
0.0375866
0.0507418
0.067886
0.0963524
0.129645
0.153661
0.160861
0.1591
0.159753
0.167563
0.1827
0.203875
0.229257
0.256573
0.283538
0.308376
0.330036
0.348289
0.361419
0.363199
0.0013888
0.00147432
0.00260654
0.00390856
0.0054524
0.00740919
0.00990257
0.0130401
0.0169281
0.0220877
0.0293874
0.0385119
0.049843
0.0670632
0.0880471
0.108139
0.119163
0.12248
0.125507
0.132597
0.144633
0.160857
0.179908
0.200157
0.220029
0.238322
0.254327