/*--------------------------------*- C++ -*----------------------------------*\
| =========                 |                                                 |
| \\      /  F ield         | OpenFOAM: The Open Source CFD Toolbox           |
|  \\    /   O peration     | Version:  2212                                  |
|   \\  /    A nd           | Website:  www.openfoam.com                      |
|    \\/     M anipulation  |                                                 |
\*---------------------------------------------------------------------------*/
FoamFile
{
    version     2.0;
    format      ascii;
    arch        "LSB;label=32;scalar=64";
    class       volScalarField;
    location    "10000";
    object      theta4_Scaled_;
}
// * * * * * * * * * * * * * * * * * * * * * * * * * * * * * * * * * * * * * //

dimensions      [0 0 0 0 0 0 0];

internalField   nonuniform List<scalar> 
18080
(
-5.08044e-07
-0.000372022
-0.00255177
-0.00839089
-0.0198258
-0.0388722
-0.0672308
-0.105834
-0.15452
-0.212401
-0.280173
-0.356191
-0.437758
-0.521262
-0.602511
-0.677447
-0.742967
-0.79749
-0.841019
-0.874702
-0.900265
-0.919514
-0.934059
-0.945207
-0.95395
-0.961012
-0.96689
-0.971899
-0.976283
-0.980113
-0.9834
-0.986159
-0.988395
-0.990113
-0.991387
-0.992274
-0.992851
-0.993181
-0.993309
-0.993271
-0.993079
-0.99273
-0.992198
-0.99144
-0.990385
-0.988931
-0.986969
-0.984376
-4.0493e-07
-0.000572261
-0.00301059
-0.0091649
-0.0211201
-0.0411956
-0.071495
-0.113386
-0.167068
-0.231421
-0.306115
-0.38992
-0.479242
-0.569312
-0.654921
-0.731544
-0.796295
-0.848297
-0.888368
-0.918321
-0.940281
-0.956227
-0.967783
-0.976182
-0.982315
-0.986811
-0.990106
-0.992509
-0.994252
-0.9955
-0.996382
-0.996996
-0.997412
-0.997682
-0.997841
-0.997913
-0.997912
-0.997848
-0.997726
-0.997545
-0.997299
-0.996977
-0.996557
-0.996012
-0.995303
-0.99438
-0.993186
-0.991674
-1.57727e-05
-0.000205065
-0.00109587
-0.00358051
-0.00899607
-0.0192776
-0.0368729
-0.0644551
-0.104387
-0.158009
-0.226533
-0.309689
-0.403851
-0.502914
-0.599606
-0.687443
-0.76225
-0.8226
-0.869278
-0.904297
-0.930057
-0.9488
-0.962378
-0.972214
-0.979355
-0.984552
-0.988337
-0.991087
-0.993081
-0.994518
-0.995544
-0.996267
-0.996769
-0.997104
-0.997312
-0.997418
-0.997439
-0.997382
-0.99725
-0.997034
-0.996723
-0.996293
-0.995714
-0.994943
-0.993927
-0.992599
-0.990884
-0.988794
-5.9584e-05
-3.91155e-05
-0.000268884
-0.00107531
-0.00317309
-0.00779178
-0.0167833
-0.0326201
-0.0581757
-0.096198
-0.149593
-0.220387
-0.307492
-0.406337
-0.509444
-0.6085
-0.696791
-0.770637
-0.82937
-0.874376
-0.907991
-0.932693
-0.950675
-0.963707
-0.973135
-0.979955
-0.984889
-0.988454
-0.991034
-0.992898
-0.994238
-0.995197
-0.995877
-0.996346
-0.996657
-0.996839
-0.996914
-0.996889
-0.996764
-0.996531
-0.99617
-0.995651
-0.994933
-0.993963
-0.992672
-0.990983
-0.988814
-0.986229
-0.000117398
-7.62736e-06
-7.85605e-05
-0.000398938
-0.00136542
-0.00373278
-0.00874419
-0.0182238
-0.0345559
-0.0604618
-0.0992423
-0.154249
-0.227003
-0.31607
-0.41633
-0.519874
-0.618309
-0.705208
-0.777347
-0.834432
-0.878059
-0.910611
-0.934524
-0.951924
-0.964517
-0.973606
-0.980158
-0.984872
-0.988277
-0.990733
-0.992499
-0.993767
-0.994673
-0.995304
-0.99573
-0.995987
-0.996105
-0.996093
-0.995949
-0.995662
-0.995206
-0.99454
-0.993608
-0.992339
-0.990647
-0.988425
-0.985567
-0.982287
-0.000207552
-7.09227e-07
-2.11291e-05
-0.00015639
-0.000635472
-0.0019295
-0.00486329
-0.0107227
-0.0213087
-0.0388841
-0.0664347
-0.107534
-0.165088
-0.240237
-0.330965
-0.431686
-0.534352
-0.63086
-0.715333
-0.785046
-0.840032
-0.881994
-0.913288
-0.936273
-0.952989
-0.965079
-0.973796
-0.980059
-0.984583
-0.987847
-0.990194
-0.991885
-0.993099
-0.99395
-0.994535
-0.9949
-0.995084
-0.9951
-0.994948
-0.994613
-0.994063
-0.993248
-0.9921
-0.990531
-0.988438
-0.985686
-0.982156
-0.978204
-0.000346038
-1.24082e-07
-3.60596e-06
-6.01222e-05
-0.000307663
-0.00104755
-0.0028319
-0.00655831
-0.0135441
-0.0255433
-0.0450005
-0.0751342
-0.119211
-0.179815
-0.257479
-0.349579
-0.450115
-0.551112
-0.644976
-0.726457
-0.793367
-0.846003
-0.886119
-0.916023
-0.937974
-0.953939
-0.965481
-0.973775
-0.979777
-0.984108
-0.987223
-0.989471
-0.991093
-0.992236
-0.993032
-0.993539
-0.993812
-0.993869
-0.993712
-0.993323
-0.992663
-0.991673
-0.990268
-0.988346
-0.985781
-0.982406
-0.978077
-0.973431
-0.000558718
-1.28002e-06
-2.59338e-08
-2.24735e-05
-0.000157725
-0.000605448
-0.00174229
-0.00419702
-0.00892047
-0.0172285
-0.0310191
-0.0529535
-0.0860772
-0.133461
-0.197179
-0.27715
-0.370132
-0.46987
-0.568639
-0.659419
-0.73765
-0.801605
-0.851786
-0.88999
-0.918442
-0.939337
-0.954536
-0.965487
-0.973444
-0.979196
-0.983336
-0.986333
-0.988507
-0.990043
-0.991129
-0.991834
-0.992236
-0.992361
-0.992214
-0.991777
-0.991005
-0.989828
-0.988145
-0.98584
-0.982765
-0.978705
-0.973497
-0.968094
-0.000887245
-2.91258e-06
-1.01824e-06
-8.05186e-06
-8.76594e-05
-0.000378057
-0.00114248
-0.00282529
-0.00610931
-0.011963
-0.0218149
-0.0377581
-0.0623686
-0.0986152
-0.14921
-0.215747
-0.297505
-0.39076
-0.489181
-0.585346
-0.672907
-0.747889
-0.808944
-0.856759
-0.893109
-0.920202
-0.94011
-0.95453
-0.965083
-0.972735
-0.978251
-0.982258
-0.985181
-0.987249
-0.988735
-0.989712
-0.9903
-0.990532
-0.990421
-0.98995
-0.98907
-0.987699
-0.98572
-0.983004
-0.979377
-0.974565
-0.968386
-0.962247
-0.00138881
-4.78022e-06
-3.45078e-06
-2.5717e-06
-5.29893e-05
-0.000254458
-0.000795245
-0.0019922
-0.00433462
-0.00852579
-0.0156199
-0.0272098
-0.04535
-0.0726226
-0.11177
-0.165205
-0.233995
-0.316895
-0.40987
-0.506553
-0.600004
-0.684429
-0.756341
-0.814739
-0.86038
-0.895118
-0.921029
-0.93996
-0.953968
-0.964175
-0.971549
-0.976932
-0.980883
-0.98368
-0.985721
-0.98708
-0.987938
-0.988338
-0.988307
-0.987832
-0.986859
-0.985299
-0.983018
-0.97987
-0.975653
-0.970016
-0.96276
-0.955804
-0.00213286
-7.00685e-06
-6.64157e-06
-4.73343e-07
-3.3345e-05
-0.000179411
-0.000575704
-0.00144959
-0.00315096
-0.00618542
-0.0113186
-0.0197355
-0.0330098
-0.0532462
-0.0828883
-0.124534
-0.180222
-0.250589
-0.33401
-0.426159
-0.520905
-0.611689
-0.693195
-0.762405
-0.818465
-0.862357
-0.895793
-0.920538
-0.939141
-0.95279
-0.962687
-0.969955
-0.975323
-0.979122
-0.981938
-0.983834
-0.98508
-0.985738
-0.98585
-0.985417
-0.984384
-0.982651
-0.980066
-0.976472
-0.971627
-0.965087
-0.956645
-0.948817
-0.00320082
-9.60726e-06
-1.05393e-05
-9.34869e-09
-2.05379e-05
-0.00012802
-0.000423401
-0.00107054
-0.00231917
-0.00452996
-0.00825134
-0.0143514
-0.0239978
-0.0388331
-0.0608707
-0.0925124
-0.136112
-0.193409
-0.264707
-0.347976
-0.438949
-0.531652
-0.619895
-0.698874
-0.765751
-0.820069
-0.862642
-0.894722
-0.919375
-0.937638
-0.950951
-0.960802
-0.968133
-0.973309
-0.977209
-0.979852
-0.981652
-0.982689
-0.983036
-0.982709
-0.981657
-0.979772
-0.976884
-0.972819
-0.967287
-0.959727
-0.949937
-0.941047
-0.00465754
-1.26562e-05
-1.53353e-05
-7.55001e-07
-1.12727e-05
-8.90166e-05
-0.000309176
-0.0007905
-0.00171134
-0.00332785
-0.00602858
-0.0104417
-0.0174132
-0.0281857
-0.0443301
-0.0678763
-0.101068
-0.14607
-0.204378
-0.275876
-0.358513
-0.448004
-0.538597
-0.624606
-0.701368
-0.766642
-0.81973
-0.860718
-0.89317
-0.917535
-0.935426
-0.948801
-0.958836
-0.965897
-0.971307
-0.974981
-0.977558
-0.979134
-0.979829
-0.979687
-0.978663
-0.976645
-0.973441
-0.968857
-0.962531
-0.953771
-0.942397
-0.932159
-0.00652704
-1.57107e-05
-2.04671e-05
-2.57006e-06
-5.00422e-06
-5.92762e-05
-0.000222464
-0.000581919
-0.00126622
-0.00245781
-0.00443063
-0.00763611
-0.0126786
-0.0204773
-0.0322128
-0.0495041
-0.0742743
-0.108651
-0.15463
-0.213307
-0.284526
-0.366097
-0.45382
-0.542428
-0.626297
-0.701608
-0.76575
-0.816865
-0.858964
-0.891154
-0.915043
-0.933144
-0.946864
-0.956467
-0.96395
-0.969021
-0.972659
-0.974975
-0.976154
-0.976284
-0.975333
-0.973184
-0.969619
-0.964411
-0.957102
-0.946843
-0.933502
-0.921446
-0.00875205
-1.85593e-05
-2.55952e-05
-5.37811e-06
-1.2897e-06
-3.67314e-05
-0.000156672
-0.000427562
-0.000944478
-0.00183932
-0.00330609
-0.00567004
-0.0093594
-0.0150481
-0.0236022
-0.036267
-0.0545861
-0.080414
-0.115763
-0.162252
-0.220934
-0.291425
-0.371491
-0.457385
-0.543811
-0.626283
-0.700459
-0.761918
-0.815203
-0.856955
-0.888426
-0.912733
-0.931402
-0.944394
-0.954703
-0.961642
-0.96671
-0.970016
-0.971845
-0.972347
-0.971508
-0.96921
-0.965199
-0.959195
-0.950593
-0.93837
-0.922486
-0.907929
-0.0111659
-2.06576e-05
-2.97992e-05
-8.83653e-06
-1.04671e-08
-2.10119e-05
-0.000109741
-0.000320101
-0.00072606
-0.00142628
-0.00256068
-0.00436746
-0.00715091
-0.0114089
-0.0177686
-0.0271732
-0.0408164
-0.0602057
-0.0871169
-0.123208
-0.170043
-0.228381
-0.297662
-0.376036
-0.459613
-0.544566
-0.625762
-0.696141
-0.761235
-0.813851
-0.854353
-0.886465
-0.911582
-0.928956
-0.943047
-0.952426
-0.959378
-0.963983
-0.966661
-0.967649
-0.966961
-0.964473
-0.959879
-0.952809
-0.942434
-0.927525
-0.908209
-0.890191
-0.0135062
-2.18333e-05
-3.27155e-05
-1.27772e-05
-7.15922e-07
-1.10781e-05
-7.92268e-05
-0.000253384
-0.000595713
-0.00118399
-0.00212233
-0.0035906
-0.00580799
-0.0091492
-0.0140702
-0.0212863
-0.0317056
-0.0465094
-0.0671503
-0.095079
-0.131887
-0.178747
-0.237975
-0.312502
-0.398073
-0.488648
-0.576537
-0.652033
-0.721107
-0.777786
-0.823182
-0.860886
-0.891442
-0.912641
-0.930488
-0.94225
-0.951157
-0.957134
-0.960721
-0.962226
-0.961667
-0.958889
-0.953488
-0.944923
-0.931991
-0.913224
-0.889022
-0.865994
-0.0154027
-2.18746e-05
-3.3974e-05
-1.69945e-05
-2.78855e-06
-5.71285e-06
-6.31549e-05
-0.000223598
-0.000544174
-0.00108981
-0.00194021
-0.00323622
-0.00513824
-0.00793573
-0.0119644
-0.017773
-0.026051
-0.0377096
-0.0538929
-0.0756623
-0.108564
-0.15505
-0.210832
-0.274119
-0.348457
-0.433122
-0.523362
-0.613272
-0.700299
-0.762517
-0.80679
-0.843754
-0.875477
-0.897839
-0.917956
-0.931124
-0.941521
-0.948667
-0.953099
-0.955091
-0.954582
-0.951303
-0.944647
-0.933729
-0.916669
-0.89166
-0.859559
-0.828637
-0.0165322
-2.07017e-05
-3.34659e-05
-2.13174e-05
-5.35445e-06
-3.61998e-06
-6.11159e-05
-0.000232166
-0.000573231
-0.00114038
-0.00199424
-0.00324827
-0.00501965
-0.00753777
-0.0110518
-0.0159908
-0.0228843
-0.032394
-0.0475574
-0.0693574
-0.0941331
-0.125227
-0.167116
-0.217172
-0.27149
-0.332013
-0.3987
-0.464783
-0.551031
-0.639638
-0.721889
-0.786516
-0.830478
-0.858092
-0.88612
-0.903786
-0.918429
-0.928905
-0.935887
-0.939623
-0.939904
-0.936291
-0.927829
-0.91297
-0.888438
-0.851843
-0.805144
-0.760251
-0.0166575
-1.85122e-05
-3.15836e-05
-2.58333e-05
-7.48108e-06
-3.98637e-06
-7.57185e-05
-0.000287633
-0.000696502
-0.00134896
-0.00228593
-0.00359848
-0.00536743
-0.00777649
-0.0110101
-0.0153994
-0.0220938
-0.0323844
-0.0444709
-0.0606583
-0.0814307
-0.103012
-0.124565
-0.148274
-0.174099
-0.204386
-0.240333
-0.27538
-0.336178
-0.402415
-0.47144
-0.567038
-0.670964
-0.737598
-0.791549
-0.81917
-0.848744
-0.871875
-0.889442
-0.901168
-0.906419
-0.904663
-0.894529
-0.873304
-0.834785
-0.775727
-0.701148
-0.631517
-0.0158108
-1.52306e-05
-2.81161e-05
-2.99314e-05
-7.89971e-06
-8.33156e-06
-0.000117704
-0.000413602
-0.000948982
-0.00175555
-0.00284836
-0.00429633
-0.00614567
-0.00854003
-0.0118892
-0.0171715
-0.0238779
-0.0322708
-0.042668
-0.0524156
-0.06215
-0.0718556
-0.080819
-0.088812
-0.0952752
-0.101922
-0.1096
-0.112025
-0.135543
-0.163584
-0.197005
-0.260836
-0.350941
-0.42369
-0.53158
-0.573116
-0.616921
-0.684498
-0.751557
-0.802671
-0.832942
-0.84394
-0.83611
-0.805931
-0.741774
-0.640546
-0.517348
-0.411159
-0.0141398
-1.15953e-05
-2.41962e-05
-3.42456e-05
-6.36431e-06
-2.1758e-05
-0.000205407
-0.000642288
-0.0013706
-0.0023969
-0.00369948
-0.00532194
-0.00741883
-0.0106023
-0.0147416
-0.0194877
-0.0251356
-0.030248
-0.0349458
-0.0394111
-0.0431863
-0.0454717
-0.0453747
-0.042485
-0.0363869
-0.0286344
-0.020168
-0.00927976
-0.00658717
-0.00409426
-0.00238601
-0.00627674
-0.0225517
-0.0252583
-0.0421293
-0.023269
-0.0334445
-0.0637867
-0.21021
-0.467094
-0.638259
-0.715575
-0.729392
-0.689217
-0.579242
-0.409103
-0.23407
-0.119565
-0.0119879
-7.71531e-06
-1.95664e-05
-3.79071e-05
-2.95275e-06
-5.65023e-05
-0.000370794
-0.00102072
-0.00201251
-0.00331474
-0.00485363
-0.00710861
-0.0100368
-0.013174
-0.0165793
-0.0194482
-0.0215727
-0.0235902
-0.0253068
-0.0261949
-0.0257314
-0.0232039
-0.0181195
-0.0110009
-0.00358667
-1.28784e-06
-0.00509451
-0.0290164
-0.0583141
-0.101477
-0.153545
-0.180388
-0.189384
-0.267351
-0.318015
-0.432827
-0.484497
-0.439539
-0.229583
-0.00108602
-0.254209
-0.51558
-0.591833
-0.543761
-0.371364
-0.149444
-0.0201969
-0.00169784
-0.00974335
-4.36466e-06
-1.52459e-05
-4.1731e-05
-1.34734e-07
-0.000131026
-0.000649724
-0.00158939
-0.00290477
-0.00458732
-0.00700305
-0.00952083
-0.0119881
-0.0138551
-0.0148452
-0.0156171
-0.0161086
-0.0162125
-0.0157338
-0.0142304
-0.0113916
-0.00711934
-0.00231006
-3.3162e-05
-0.00657939
-0.0307864
-0.0817365
-0.173898
-0.265125
-0.369271
-0.467815
-0.53115
-0.584142
-0.686083
-0.756289
-0.825108
-0.845253
-0.813956
-0.693512
-0.34431
-0.00358148
-0.340011
-0.493164
-0.430764
-0.198062
-0.0127329
-0.027597
-0.122298
-0.00761982
-1.88937e-06
-1.15135e-05
-4.59694e-05
-2.4841e-06
-0.000267491
-0.00107145
-0.00236341
-0.00402859
-0.00645648
-0.00881388
-0.0105398
-0.0113405
-0.0117931
-0.0118303
-0.0114942
-0.0107478
-0.00952739
-0.00773486
-0.0052207
-0.00227657
-0.000100919
-0.00210064
-0.0153332
-0.0514229
-0.12096
-0.227866
-0.37189
-0.492091
-0.604271
-0.692657
-0.74844
-0.796342
-0.861665
-0.902689
-0.93284
-0.941542
-0.930886
-0.877007
-0.650916
-0.0597899
-0.265084
-0.476091
-0.387867
-0.10486
-0.00740624
-0.121148
-0.279461
-0.00587569
-4.21749e-07
-8.33099e-06
-5.04832e-05
-1.75019e-05
-0.000490656
-0.00166093
-0.00334817
-0.00589102
-0.00826074
-0.00952385
-0.0102678
-0.0104948
-0.010247
-0.00948302
-0.00828533
-0.00667562
-0.00471304
-0.00254636
-0.000586042
-0.000182167
-0.0045747
-0.0206015
-0.0595064
-0.135251
-0.251408
-0.396305
-0.552294
-0.664608
-0.755548
-0.819479
-0.859124
-0.892716
-0.931462
-0.954237
-0.968675
-0.972549
-0.967369
-0.942659
-0.82823
-0.200723
-0.207018
-0.478403
-0.372378
-0.0622904
-0.035567
-0.175517
-0.391357
-0.00443955
-5.18988e-10
-6.28431e-06
-5.69964e-05
-5.28999e-05
-0.000805354
-0.00238933
-0.00457539
-0.00711342
-0.00857114
-0.00944991
-0.00975257
-0.00943291
-0.00855637
-0.00712508
-0.00530304
-0.0032517
-0.00129536
-6.33103e-05
-0.000928839
-0.00690374
-0.0240313
-0.0627644
-0.136114
-0.252926
-0.401
-0.554383
-0.692429
-0.781432
-0.847138
-0.890364
-0.917053
-0.939312
-0.962594
-0.975679
-0.983269
-0.985098
-0.982036
-0.968462
-0.908462
-0.474669
-0.168984
-0.521004
-0.440397
-0.122033
-0.0085175
-0.10179
-0.355997
-0.00347536
-3.30607e-07
-4.52101e-06
-6.35164e-05
-0.000117366
-0.00121438
-0.00322327
-0.00602302
-0.00776044
-0.00901196
-0.00953989
-0.00936051
-0.00847071
-0.00698702
-0.00500406
-0.00284109
-0.000915939
-9.57399e-08
-0.00149824
-0.00819657
-0.0252688
-0.0616934
-0.1298
-0.238859
-0.38511
-0.541521
-0.680357
-0.789972
-0.855785
-0.901652
-0.930739
-0.948744
-0.963459
-0.977865
-0.985733
-0.990051
-0.990964
-0.988964
-0.980742
-0.946543
-0.706768
-0.108248
-0.586593
-0.588508
-0.36583
-0.0487395
-9.84715e-06
-0.018745
-0.00268593
-8.72747e-07
-3.98887e-06
-7.33988e-05
-0.000206201
-0.00166286
-0.00401218
-0.00643881
-0.00800212
-0.00892318
-0.00899765
-0.0082725
-0.00684124
-0.00491097
-0.00272525
-0.00082614
-2.69258e-06
-0.00164427
-0.00818243
-0.0241082
-0.0567922
-0.117128
-0.215848
-0.353188
-0.511586
-0.658438
-0.773928
-0.856767
-0.904309
-0.936008
-0.955618
-0.967774
-0.977424
-0.986367
-0.991199
-0.993782
-0.994355
-0.993377
-0.989884
-0.980203
-0.95394
-0.88628
-0.781487
-0.697577
-0.544529
-0.156427
-0.0961662
-0.062971
-0.00207013
-1.48325e-06
-3.42979e-06
-7.88684e-05
-0.000329827
-0.00218691
-0.00498883
-0.00685368
-0.00818169
-0.00875671
-0.00846484
-0.00747516
-0.00606061
-0.00453116
-0.00308021
-0.00192167
-0.00102491
-0.000358112
-1.17206e-06
-0.000815421
-0.00624811
-0.0263369
-0.0826238
-0.202514
-0.389541
-0.590915
-0.75119
-0.857672
-0.913534
-0.947169
-0.966711
-0.978534
-0.9868
-0.992752
-0.995719
-0.997248
-0.99792
-0.998195
-0.998264
-0.998206
-0.998023
-0.997577
-0.996359
-0.990563
-0.927041
0.00273377
0.797045
0.917321
-0.00183515
-1.805e-06
-2.31642e-06
-4.99552e-05
-0.000630725
-0.00333725
-0.00700296
-0.00937649
-0.0114712
-0.0138607
-0.0183466
-0.0285852
-0.0526206
-0.104952
-0.200625
-0.337666
-0.485487
-0.610424
-0.699595
-0.756857
-0.791006
-0.808935
-0.814914
-0.810883
-0.796183
-0.768184
-0.718371
-0.621592
-0.468679
-0.205551
-0.000140779
-0.329688
-0.785293
-0.943447
-0.978802
-0.989617
-0.993529
-0.995222
-0.996118
-0.996397
-0.995904
-0.993943
-0.986309
-0.929038
-0.23956
-0.0178647
0.48447
0.711333
-0.00147882
-2.1741e-06
-4.73965e-06
-0.000106977
-0.00298475
-0.0114994
-0.0214239
-0.0349719
-0.0641221
-0.133579
-0.274488
-0.467281
-0.632372
-0.732203
-0.781088
-0.801265
-0.805821
-0.802124
-0.794246
-0.784539
-0.774496
-0.764866
-0.75603
-0.748077
-0.741321
-0.736229
-0.731913
-0.726341
-0.722391
-0.720474
-0.729068
-0.757641
-0.800776
-0.830309
-0.837919
-0.805688
-0.72117
-0.447179
-0.0228516
-0.650505
-0.859026
-0.905755
-0.901233
-0.83101
-0.616332
-0.0117172
0.102103
0.0663749
-0.00117198
-1.85621e-05
-0.000887384
-0.0109286
-0.0339649
-0.103475
-0.189222
-0.330448
-0.518474
-0.661578
-0.725561
-0.738577
-0.726522
-0.704319
-0.679556
-0.656388
-0.63625
-0.619591
-0.605569
-0.594108
-0.585594
-0.579699
-0.575928
-0.573713
-0.572475
-0.571965
-0.571996
-0.571023
-0.570179
-0.571156
-0.584122
-0.624091
-0.698939
-0.782358
-0.846828
-0.879053
-0.889134
-0.858824
-0.747872
-0.29431
-0.213871
-0.644595
-0.727414
-0.681057
-0.567054
-0.450433
-0.346467
-0.238986
-0.00126371
-0.000729377
-0.0228392
-0.112101
-0.167789
-0.363239
-0.511077
-0.609702
-0.639987
-0.625594
-0.59415
-0.562174
-0.536207
-0.517262
-0.503428
-0.493225
-0.485296
-0.479143
-0.475092
-0.473315
-0.472829
-0.473493
-0.475098
-0.477191
-0.47921
-0.480886
-0.482099
-0.482056
-0.48075
-0.474766
-0.463263
-0.453903
-0.460645
-0.492889
-0.538935
-0.555548
-0.601945
-0.644784
-0.610403
-0.463252
-0.263047
-0.14079
-0.114199
-0.151847
-0.199493
-0.214207
-0.210842
-0.184735
-0.000296813
-0.0120394
-0.10499
-0.20052
-0.18299
-0.380735
-0.478408
-0.489146
-0.459497
-0.425748
-0.402206
-0.389834
-0.385104
-0.384935
-0.38687
-0.389996
-0.393625
-0.397821
-0.403788
-0.411023
-0.418566
-0.425863
-0.432637
-0.438747
-0.444043
-0.448481
-0.45186
-0.454102
-0.456309
-0.455862
-0.447987
-0.413858
-0.357277
-0.299991
-0.269399
-0.263971
-0.321015
-0.399054
-0.488519
-0.546853
-0.573927
-0.568264
-0.52386
-0.413529
-0.215644
0.0470137
0.0697489
-0.00869291
-0.00176003
-0.0475944
-0.108529
-0.145187
-0.139573
-0.326851
-0.340157
-0.30298
-0.273056
-0.26133
-0.262582
-0.270265
-0.280506
-0.29173
-0.302994
-0.314486
-0.326088
-0.337594
-0.348226
-0.3576
-0.366746
-0.374888
-0.381693
-0.387244
-0.391701
-0.395263
-0.397823
-0.39857
-0.397864
-0.397288
-0.403961
-0.410365
-0.387977
-0.305135
-0.251469
-0.250752
-0.214319
0.00473593
0.390819
0.586694
0.684388
0.734222
0.760775
0.763129
0.748702
0.734977
0.704843
0.66791
-0.0372652
-0.0405458
-0.0578851
-0.091542
-0.156356
-0.213051
-0.171512
-0.141933
-0.14105
-0.151341
-0.164781
-0.17962
-0.19484
-0.210846
-0.227892
-0.245119
-0.26097
-0.275274
-0.287717
-0.298219
-0.306642
-0.313191
-0.318246
-0.32197
-0.324467
-0.325939
-0.326493
-0.325216
-0.320292
-0.308568
-0.298497
-0.330122
-0.367187
-0.361185
-0.303884
-0.212438
0.0614246
0.345114
0.500394
0.575577
0.607815
0.617809
0.606164
0.570579
0.52243
0.487534
0.453798
0.434705
-0.0258675
-0.0102741
-0.0246277
-0.0576393
-0.0968508
-0.0739647
-0.0536296
-0.0677936
-0.0890221
-0.106229
-0.119712
-0.131896
-0.143662
-0.155546
-0.167592
-0.180309
-0.194256
-0.208404
-0.221159
-0.231661
-0.239563
-0.245576
-0.250186
-0.253662
-0.25606
-0.257561
-0.258373
-0.258435
-0.256952
-0.24728
-0.212983
-0.161912
-0.178095
-0.302838
-0.310503
-0.179642
0.027964
0.118276
0.143776
0.157162
0.155029
0.138421
0.105326
0.0702381
0.0387961
0.0100643
-0.0220651
-0.0402963
-0.0624604
-0.00319592
-0.0108369
-0.0234768
0.000707862
-0.00925587
-0.0321754
-0.054278
-0.0704969
-0.0824556
-0.0926821
-0.102418
-0.111725
-0.120544
-0.128341
-0.135676
-0.143234
-0.15066
-0.15763
-0.16409
-0.169949
-0.175109
-0.179564
-0.183315
-0.186342
-0.188526
-0.190038
-0.191667
-0.194448
-0.19545
-0.179478
-0.0930502
0.0375016
-0.0346309
-0.24372
-0.273523
-0.238662
-0.203473
-0.149501
-0.100664
-0.0725192
-0.0631079
-0.0698442
-0.0899614
-0.124304
-0.167366
-0.203327
-0.218843
-0.049541
0.00225068
-0.00418659
0.00408532
0.0325789
-0.00163564
-0.0261571
-0.0392429
-0.050009
-0.059603
-0.0685328
-0.077016
-0.0849206
-0.0921393
-0.0983047
-0.104033
-0.109277
-0.113935
-0.118013
-0.121438
-0.123996
-0.126077
-0.127523
-0.128549
-0.129238
-0.129537
-0.129546
-0.129748
-0.131384
-0.135896
-0.142221
-0.120689
-0.0125136
0.116684
-0.108476
-0.312071
-0.339453
-0.285358
-0.213016
-0.152833
-0.119482
-0.113379
-0.131876
-0.163537
-0.200643
-0.228513
-0.234758
-0.22973
-0.0320917
0.00412078
-0.00179061
0.0090183
0.0282452
0.00956857
-0.00509638
-0.0164944
-0.023951
-0.0311271
-0.0382705
-0.0453258
-0.0521607
-0.058654
-0.0645359
-0.0714913
-0.0780482
-0.0839238
-0.0889747
-0.093042
-0.0959088
-0.0978001
-0.0991661
-0.0999101
-0.100135
-0.0995935
-0.0982875
-0.0965822
-0.0950185
-0.0962033
-0.105681
-0.119812
-0.0981242
0.0362774
0.0574052
-0.189061
-0.313818
-0.300339
-0.259415
-0.222733
-0.202947
-0.201189
-0.205067
-0.206013
-0.180449
-0.124423
-0.0440525
-0.0153862
-0.0236329
0.00354879
-0.000888705
0.00113591
0.00785801
0.0134261
0.0164151
0.0162732
0.0146603
0.0117323
0.00765704
0.00236814
-0.00429878
-0.0124193
-0.0216749
-0.0284295
-0.0357051
-0.043378
-0.0510916
-0.0583895
-0.0646719
-0.0696316
-0.0751371
-0.0797771
-0.0831232
-0.0850189
-0.0855249
-0.0847271
-0.0823422
-0.0794955
-0.0815024
-0.0984881
-0.119025
-0.0773961
0.0845177
0.115395
-0.00936222
-0.115062
-0.160556
-0.163988
-0.136741
-0.0819527
0.037103
0.12871
0.196403
0.232722
0.238489
0.224989
-0.0115668
0.00221203
-0.000398247
-0.00310856
-0.00891105
-0.0069996
-0.00272192
0.00162262
0.0036522
0.0053174
0.00701142
0.00885843
0.010853
0.0128861
0.0147745
0.0166195
0.0175043
0.016724
0.0135642
0.00737499
-0.00225746
-0.0151074
-0.0257181
-0.0363202
-0.0469359
-0.056667
-0.0647593
-0.070713
-0.0737806
-0.073488
-0.0729574
-0.0797234
-0.104273
-0.123488
-0.025599
0.143668
0.213816
0.235805
0.23268
0.235501
0.260196
0.285141
0.305698
0.312215
0.290775
0.252573
0.201188
0.172712
-0.00440195
0.000818435
-0.000108206
-0.000939719
-0.00315686
-0.00527804
-0.00702734
-0.0084932
-0.00952267
-0.0102467
-0.0105999
-0.0104359
-0.00952708
-0.00759039
-0.0044439
-0.00199039
0.00158069
0.00635092
0.0121931
0.0188019
0.0256498
0.0319929
0.0377936
0.0417838
0.0429258
0.0404216
0.0337072
0.022396
0.00686508
-0.0111396
-0.0241875
-0.0342004
-0.0547008
-0.09708
-0.108806
-0.00578066
0.109536
0.173831
0.212893
0.230011
0.229858
0.217346
0.185471
0.149362
0.0923019
0.0322757
-0.0162478
-0.0291697
-0.00102434
0.000136642
-1.0415e-05
-2.12884e-05
-2.5435e-05
-0.000153547
-0.000427719
-0.000826551
-0.00126259
-0.00180467
-0.00249059
-0.00336012
-0.00445357
-0.00580322
-0.00738967
-0.00898438
-0.0105506
-0.0118122
-0.0123627
-0.0116609
-0.00909659
-0.00404375
0.00129548
0.00820127
0.0168586
0.0268073
0.0373799
0.0477444
0.0570464
0.0647791
0.0722821
0.0804441
0.0864814
0.0731367
0.0314779
0.0326346
0.0786422
0.118498
0.147326
0.152511
0.130731
0.100548
0.0609497
0.0302594
0.00875493
-0.0103711
-0.0239703
-0.0340144
-5.27988e-05
8.68073e-06
-3.35505e-07
7.75883e-07
5.8192e-06
1.33613e-05
2.05259e-05
2.60183e-05
2.68356e-05
2.22623e-05
9.19441e-06
-1.81079e-05
-6.95067e-05
-0.000161074
-0.000315702
-0.00052568
-0.000856999
-0.00137098
-0.00214492
-0.00326639
-0.00481232
-0.0068333
-0.00914497
-0.011632
-0.0139901
-0.0157163
-0.0161832
-0.0146958
-0.0106798
-0.00377989
0.00400308
0.0135177
0.0264798
0.040027
0.0350844
0.0165473
0.0148392
0.0292347
0.0468664
0.0546465
0.0490336
0.0407329
0.0316463
0.0322276
0.0448133
0.0560459
0.0632114
0.0640536
3.10881e-06
1.21645e-07
-1.66222e-08
-1.70768e-08
1.88971e-08
9.51202e-08
2.07341e-07
3.45222e-07
4.94788e-07
6.74764e-07
8.99714e-07
1.19132e-06
1.57727e-06
2.07421e-06
2.63204e-06
2.64345e-06
1.77475e-06
-1.2783e-06
-9.03727e-06
-2.63588e-05
-6.17798e-05
-0.000129679
-0.000235169
-0.000408522
-0.000689688
-0.00112786
-0.00178104
-0.00271721
-0.00398027
-0.00558777
-0.00746756
-0.00944911
-0.0111317
-0.0118345
-0.0127624
-0.0173803
-0.0227824
-0.0267475
-0.0288881
-0.0286329
-0.0259059
-0.0222947
-0.0178573
-0.013331
-0.00814468
-0.00222087
0.00273393
0.0104713
3.1149e-08
-1.05325e-10
-1.46625e-10
-1.50892e-10
-1.36907e-10
2.92741e-11
4.1696e-10
1.08169e-09
2.15813e-09
3.8426e-09
6.43741e-09
1.04167e-08
1.65573e-08
2.61134e-08
4.1059e-08
6.41146e-08
1.00733e-07
1.59863e-07
2.55837e-07
4.12066e-07
6.64788e-07
1.0703e-06
1.67137e-06
2.56948e-06
3.8871e-06
5.74614e-06
8.24415e-06
1.14452e-05
1.51448e-05
1.88676e-05
2.26771e-05
2.55089e-05
2.57643e-05
2.60881e-05
3.31698e-05
2.5298e-05
-5.08656e-05
-0.000199432
-0.000401704
-0.000594146
-0.000714405
-0.00079048
-0.000780479
-0.00066887
-0.000536954
-0.000502758
-0.000580418
-0.000806345
9.56977e-07
-7.42169e-08
-5.95276e-09
-4.54349e-09
-4.46982e-09
-4.5628e-09
-4.85126e-09
-5.53258e-09
-6.81834e-09
-8.91105e-09
-1.42778e-08
-3.41119e-08
-2.04073e-07
-1.42657e-06
-6.84928e-08
3.76535e-09
5.2089e-09
3.38321e-09
-3.52992e-09
-3.91119e-08
-1.3798e-07
-4.00519e-07
-1.08648e-06
-2.8209e-06
-6.96669e-06
-1.64839e-05
-4.03304e-05
-0.000119282
-0.000521825
-0.00272921
-4.89838e-05
-4.78059e-06
2.048e-06
2.75509e-07
-3.61165e-08
-1.37215e-07
-1.87142e-07
-2.17054e-07
-2.14641e-07
-1.75539e-07
-1.31816e-07
-2.03787e-06
-1.05578e-05
1.08043e-05
-1.51496e-05
-2.47095e-07
-2.74965e-08
-6.20063e-07
-1.07969e-06
-1.56483e-06
-2.2268e-06
-2.86394e-06
-4.50308e-07
2.37309e-05
0.000131291
0.000453372
0.00116327
0.00295802
0.00497642
0.0532633
6.38386e-05
-2.80558e-06
4.12497e-05
9.35798e-06
5.60999e-06
5.03667e-06
5.01062e-06
5.1465e-06
5.2786e-06
2.9003e-06
-5.63012e-06
-6.9142e-05
-1.52967e-07
4.15065e-05
-0.00120804
-1.36027e-05
1.76355e-06
-1.74154e-05
-9.98956e-05
-0.000330291
-0.000863275
-0.00199771
-0.00419428
-0.00852856
-0.0147414
-0.023567
-0.0361542
-0.0527058
-0.0982991
-0.0085178
0.000890846
-8.00037e-05
0.000192814
3.99014e-05
1.49322e-05
-7.56856e-07
-2.38035e-05
-6.27136e-05
-0.000126358
-0.000242694
-0.000447063
-0.00105004
-0.000214659
-0.00159403
-0.0107833
-0.000549117
-0.000104898
-0.000983724
-0.00284827
-0.00639442
-0.0123089
-0.021521
-0.0346282
-0.0536129
-0.0767123
-0.104494
-0.137556
-0.173084
-0.253217
-0.0658466
0.00228407
-0.000180596
0.000749605
0.000249528
0.000123571
3.80433e-05
-6.23712e-05
-0.000188352
-0.00032044
-0.000441511
-0.000345328
-0.000688812
0.00349993
-0.00346239
-0.034654
-0.00760628
-0.00779836
-0.0113582
-0.01802
-0.0295827
-0.0457907
-0.0673791
-0.0949562
-0.130372
-0.172144
-0.217354
-0.264306
-0.304772
-0.371816
-0.0693141
0.00453664
-0.000480951
0.00182989
0.000747273
0.000512268
0.000395482
0.000303773
0.000263571
0.000380004
0.000676767
0.00155923
0.00181013
0.00919275
-0.00776306
-0.0709909
-0.0230618
-0.0183207
-0.0302189
-0.0413997
-0.0603311
-0.0890236
-0.126547
-0.173126
-0.226224
-0.27952
-0.329604
-0.374295
-0.396576
-0.416378
-0.0341054
0.00818914
-0.00121698
0.00340999
0.00143934
0.00104723
0.000921848
0.000871936
0.000928687
0.00127286
0.00169602
0.0023557
-0.000620922
0.0073805
-0.0209974
-0.117955
-0.0495842
-0.0123291
-0.0463405
-0.0731044
-0.108134
-0.151238
-0.203252
-0.258711
-0.313609
-0.362614
-0.402789
-0.429916
-0.420008
-0.411941
-0.00315566
0.0133325
-0.00256403
0.00592928
0.00252553
0.00169977
0.00138516
0.00117174
0.00104434
0.00123391
0.00127898
0.00136024
-0.00734494
0.00153787
-0.0431887
-0.172874
-0.0938713
-0.0625833
-0.0924637
-0.121505
-0.168796
-0.218467
-0.271653
-0.323074
-0.369366
-0.407921
-0.435206
-0.44135
-0.410635
-0.405006
-0.000702789
0.0192867
-0.00472046
0.0104094
0.00445236
0.00254177
0.00156519
0.000680972
-0.000213104
-0.00101419
-0.002568
-0.00504493
-0.0236317
-0.0109068
-0.0818602
-0.238112
-0.148637
-0.131535
-0.161762
-0.183623
-0.221378
-0.272341
-0.320365
-0.36606
-0.404957
-0.434276
-0.450526
-0.442
-0.415263
-0.417077
-1.83293e-06
0.0237214
-0.00738475
0.0159162
0.00750168
0.00416707
0.00191521
-0.000504219
-0.00315747
-0.0060662
-0.0105331
-0.0170444
-0.0477401
-0.0283524
-0.12947
-0.315493
-0.217728
-0.204112
-0.22836
-0.248635
-0.277632
-0.319063
-0.363331
-0.402959
-0.435803
-0.45862
-0.467012
-0.459572
-0.437383
-0.441954
-0.0161944
0.0223488
-0.00940461
0.0199201
0.0107245
0.00633641
0.00279216
-0.00148774
-0.00618855
-0.0113125
-0.0182541
-0.0268502
-0.0644169
-0.0385532
-0.164857
-0.390216
-0.292828
-0.292538
-0.300439
-0.31493
-0.341606
-0.369446
-0.4084
-0.442642
-0.46999
-0.487532
-0.490709
-0.487773
-0.464354
-0.468742
-0.0872943
0.0132572
-0.00834831
0.0182723
0.0115342
0.00706481
0.00409473
0.000144253
-0.00516727
-0.0104795
-0.0172966
-0.0244877
-0.0598867
-0.0353694
-0.142518
-0.43756
-0.36326
-0.378714
-0.387767
-0.386742
-0.407506
-0.430808
-0.457093
-0.485785
-0.507653
-0.520734
-0.521191
-0.518238
-0.49456
-0.494638
-0.198178
0.0033877
-0.00406907
0.00985972
0.00753222
0.00506911
0.003338
0.000781019
-0.00269417
-0.00611147
-0.0106738
-0.0154162
-0.0375088
-0.021252
-0.0719014
-0.43993
-0.414809
-0.446574
-0.480288
-0.466492
-0.476122
-0.494913
-0.511732
-0.531596
-0.547748
-0.556735
-0.556463
-0.550792
-0.526412
-0.51838
-0.300345
2.94847e-05
-0.00076454
0.00222296
0.00212941
0.00152105
0.000962182
2.19495e-05
-0.00127008
-0.00260239
-0.00428451
-0.0057941
-0.0112214
-0.00517179
-0.0161563
-0.376352
-0.432834
-0.48141
-0.537247
-0.544741
-0.545511
-0.554944
-0.567498
-0.577658
-0.587345
-0.591735
-0.589114
-0.578983
-0.553385
-0.535106