/*--------------------------------*- C++ -*----------------------------------*\
| =========                 |                                                 |
| \\      /  F ield         | OpenFOAM: The Open Source CFD Toolbox           |
|  \\    /   O peration     | Version:  2212                                  |
|   \\  /    A nd           | Website:  www.openfoam.com                      |
|    \\/     M anipulation  |                                                 |
\*---------------------------------------------------------------------------*/
FoamFile
{
    version     2.0;
    format      ascii;
    arch        "LSB;label=32;scalar=64";
    class       volScalarField;
    location    "10000";
    object      theta3_Scaled_;
}
// * * * * * * * * * * * * * * * * * * * * * * * * * * * * * * * * * * * * * //

dimensions      [0 0 0 0 0 0 0];

internalField   nonuniform List<scalar> 
18080
(
0.0145092
0.305355
0.62535
0.812832
0.902461
0.946073
0.968463
0.980626
0.987598
0.991811
0.994532
0.996326
0.997524
0.998331
0.998876
0.999243
0.999489
0.999653
0.999762
0.999835
0.999884
0.999916
0.999938
0.999953
0.999963
0.99997
0.999975
0.999979
0.999982
0.999984
0.999986
0.999987
0.999988
0.999989
0.999989
0.999989
0.999988
0.999985
0.999982
0.999976
0.999966
0.999949
0.999919
0.999865
0.99977
0.999601
0.999311
0.998827
0.0310983
0.319166
0.64156
0.825071
0.910376
0.951149
0.97183
0.982952
0.989257
0.993001
0.995355
0.996889
0.997903
0.998579
0.999034
0.999341
0.999549
0.99969
0.999785
0.999851
0.999895
0.999926
0.999947
0.999961
0.999971
0.999978
0.999983
0.999987
0.999989
0.999991
0.999992
0.999993
0.999993
0.999993
0.999993
0.999992
0.999991
0.999989
0.999985
0.999979
0.99997
0.999954
0.999925
0.999875
0.999788
0.999638
0.999391
0.999008
0.0279216
0.305832
0.631801
0.820238
0.908159
0.95016
0.971413
0.982799
0.989223
0.993015
0.995383
0.996918
0.997926
0.998595
0.999043
0.999345
0.999549
0.999687
0.999782
0.999847
0.999891
0.999922
0.999943
0.999958
0.999969
0.999976
0.999981
0.999985
0.999987
0.999989
0.999991
0.999991
0.999992
0.999992
0.999992
0.999991
0.999989
0.999987
0.999984
0.999977
0.999967
0.99995
0.99992
0.999866
0.999771
0.999606
0.999325
0.998876
0.0313342
0.309428
0.632397
0.819913
0.90783
0.949941
0.971275
0.982709
0.989163
0.992973
0.995353
0.996895
0.997909
0.998583
0.999035
0.999339
0.999545
0.999685
0.999781
0.999846
0.999891
0.999922
0.999944
0.999959
0.999969
0.999976
0.999982
0.999985
0.999988
0.99999
0.999991
0.999992
0.999992
0.999992
0.999992
0.999991
0.99999
0.999988
0.999984
0.999978
0.999969
0.999952
0.999922
0.999869
0.999773
0.999602
0.999305
0.99882
0.0337971
0.308282
0.630265
0.818544
0.907086
0.949538
0.971052
0.982583
0.989089
0.99293
0.995326
0.996878
0.997899
0.998577
0.999031
0.999337
0.999544
0.999684
0.99978
0.999846
0.999891
0.999922
0.999943
0.999958
0.999969
0.999976
0.999981
0.999985
0.999988
0.99999
0.999991
0.999992
0.999992
0.999992
0.999992
0.999991
0.99999
0.999987
0.999984
0.999978
0.999968
0.99995
0.999919
0.999862
0.999759
0.999574
0.999244
0.998696
0.0395697
0.312368
0.631146
0.818393
0.906829
0.949346
0.970927
0.982505
0.98904
0.992898
0.995305
0.996864
0.997889
0.99857
0.999026
0.999333
0.999541
0.999683
0.999779
0.999845
0.99989
0.999921
0.999943
0.999958
0.999969
0.999976
0.999981
0.999985
0.999988
0.99999
0.999991
0.999992
0.999992
0.999992
0.999992
0.999991
0.99999
0.999988
0.999984
0.999978
0.999968
0.99995
0.999919
0.999862
0.999757
0.999567
0.999222
0.998638
0.0486074
0.318914
0.632904
0.818466
0.906622
0.949161
0.970799
0.982422
0.988987
0.992864
0.995281
0.996848
0.997879
0.998563
0.999021
0.99933
0.999539
0.999681
0.999778
0.999844
0.99989
0.999921
0.999943
0.999958
0.999969
0.999976
0.999981
0.999985
0.999988
0.99999
0.999991
0.999992
0.999992
0.999992
0.999992
0.999991
0.99999
0.999988
0.999984
0.999978
0.999967
0.99995
0.999917
0.999859
0.999749
0.999548
0.999177
0.998536
0.0625505
0.329941
0.636807
0.819278
0.906662
0.949062
0.970702
0.982349
0.988937
0.99283
0.995257
0.996832
0.997867
0.998555
0.999016
0.999326
0.999536
0.999679
0.999777
0.999843
0.999889
0.999921
0.999942
0.999958
0.999968
0.999976
0.999981
0.999985
0.999988
0.99999
0.999991
0.999992
0.999992
0.999992
0.999992
0.999991
0.99999
0.999988
0.999984
0.999978
0.999968
0.99995
0.999917
0.999857
0.999746
0.999536
0.999146
0.998459
0.0834182
0.346652
0.643298
0.820923
0.906955
0.949039
0.970626
0.98228
0.988884
0.992792
0.99523
0.996812
0.997853
0.998545
0.999009
0.999322
0.999533
0.999677
0.999775
0.999842
0.999888
0.99992
0.999942
0.999957
0.999968
0.999976
0.999981
0.999985
0.999988
0.999989
0.999991
0.999992
0.999992
0.999992
0.999992
0.999991
0.99999
0.999988
0.999984
0.999978
0.999967
0.999949
0.999916
0.999855
0.99974
0.99952
0.999102
0.998353
0.113629
0.370619
0.653174
0.823699
0.907604
0.949129
0.970582
0.982217
0.98883
0.99275
0.995198
0.996789
0.997836
0.998533
0.999001
0.999316
0.999529
0.999674
0.999773
0.999841
0.999887
0.999919
0.999942
0.999957
0.999968
0.999976
0.999981
0.999985
0.999988
0.999989
0.999991
0.999992
0.999992
0.999992
0.999992
0.999991
0.99999
0.999988
0.999984
0.999978
0.999968
0.999949
0.999916
0.999854
0.999734
0.999504
0.999057
0.998241
0.154963
0.402713
0.666957
0.827844
0.908691
0.949355
0.970578
0.982161
0.988772
0.992702
0.99516
0.99676
0.997815
0.998518
0.99899
0.999308
0.999524
0.999671
0.999771
0.999839
0.999886
0.999919
0.999941
0.999957
0.999968
0.999975
0.999981
0.999985
0.999987
0.999989
0.999991
0.999992
0.999992
0.999992
0.999992
0.999991
0.99999
0.999988
0.999984
0.999978
0.999968
0.99995
0.999916
0.999852
0.999728
0.999484
0.999001
0.998098
0.208071
0.442743
0.684753
0.833518
0.910295
0.949748
0.970622
0.982113
0.988708
0.992645
0.995113
0.996724
0.997788
0.998499
0.998976
0.999299
0.999517
0.999666
0.999768
0.999837
0.999885
0.999918
0.99994
0.999956
0.999967
0.999975
0.999981
0.999985
0.999987
0.999989
0.999991
0.999992
0.999992
0.999992
0.999992
0.999991
0.99999
0.999988
0.999984
0.999978
0.999968
0.99995
0.999916
0.999851
0.999721
0.999462
0.998934
0.997922
0.270756
0.48873
0.705891
0.840667
0.912445
0.950327
0.970721
0.982073
0.988638
0.992578
0.995055
0.996678
0.997754
0.998474
0.998958
0.999286
0.999509
0.99966
0.999764
0.999834
0.999883
0.999916
0.99994
0.999956
0.999967
0.999975
0.999981
0.999985
0.999987
0.999989
0.999991
0.999992
0.999992
0.999992
0.999992
0.999991
0.99999
0.999988
0.999985
0.999979
0.999969
0.999951
0.999917
0.99985
0.999714
0.999435
0.99885
0.997693
0.338438
0.537026
0.728959
0.848984
0.915115
0.951107
0.970886
0.982047
0.988562
0.992498
0.994985
0.996622
0.997711
0.998442
0.998936
0.99927
0.999498
0.999653
0.999759
0.999831
0.999881
0.999915
0.999939
0.999955
0.999967
0.999975
0.99998
0.999985
0.999987
0.999989
0.999991
0.999992
0.999992
0.999992
0.999992
0.999992
0.99999
0.999988
0.999985
0.999979
0.99997
0.999952
0.999917
0.999849
0.999707
0.999405
0.998747
0.997396
0.404667
0.583065
0.75171
0.857719
0.918096
0.952037
0.971106
0.982031
0.988477
0.992404
0.994899
0.996552
0.997658
0.998403
0.998908
0.999251
0.999484
0.999644
0.999753
0.999827
0.999878
0.999913
0.999938
0.999954
0.999966
0.999974
0.99998
0.999984
0.999987
0.999989
0.999991
0.999992
0.999992
0.999993
0.999992
0.999992
0.999991
0.999989
0.999986
0.99998
0.999971
0.999953
0.999919
0.999849
0.9997
0.99937
0.998622
0.99701
0.46349
0.622944
0.772083
0.866079
0.921164
0.953076
0.971386
0.982034
0.98839
0.992299
0.9948
0.99647
0.997594
0.998356
0.998874
0.999227
0.999468
0.999633
0.999745
0.999822
0.999875
0.999911
0.999936
0.999954
0.999966
0.999974
0.99998
0.999984
0.999987
0.999989
0.999991
0.999992
0.999993
0.999993
0.999993
0.999992
0.999991
0.999989
0.999986
0.999981
0.999972
0.999955
0.999921
0.999851
0.999694
0.999333
0.998473
0.996518
0.510837
0.654311
0.788675
0.873409
0.924113
0.954191
0.971738
0.982074
0.988313
0.992191
0.994692
0.996377
0.997522
0.998302
0.998835
0.9992
0.999449
0.99962
0.999737
0.999817
0.999871
0.999909
0.999935
0.999953
0.999965
0.999974
0.99998
0.999984
0.999987
0.99999
0.999991
0.999992
0.999993
0.999993
0.999993
0.999992
0.999991
0.99999
0.999987
0.999982
0.999973
0.999957
0.999924
0.999853
0.99969
0.999296
0.998304
0.995913
0.543894
0.675267
0.800167
0.878942
0.926605
0.955258
0.972118
0.982133
0.98824
0.992076
0.994572
0.996273
0.997438
0.998239
0.99879
0.999168
0.999428
0.999606
0.999727
0.99981
0.999867
0.999907
0.999933
0.999952
0.999965
0.999974
0.99998
0.999984
0.999987
0.99999
0.999991
0.999992
0.999993
0.999993
0.999993
0.999993
0.999992
0.99999
0.999988
0.999983
0.999975
0.99996
0.999928
0.999858
0.999689
0.999262
0.998129
0.995242
0.561985
0.68513
0.806015
0.882332
0.92849
0.956226
0.972511
0.98221
0.98817
0.991955
0.994442
0.996157
0.997345
0.998168
0.998738
0.999132
0.999403
0.999589
0.999716
0.999803
0.999863
0.999904
0.999932
0.999951
0.999964
0.999973
0.99998
0.999984
0.999988
0.99999
0.999991
0.999992
0.999993
0.999993
0.999993
0.999993
0.999992
0.999991
0.999989
0.999984
0.999977
0.999963
0.999933
0.999864
0.999694
0.99924
0.99798
0.994641
0.564646
0.683545
0.806082
0.883588
0.929815
0.957124
0.972931
0.98231
0.988108
0.991831
0.994305
0.996033
0.997243
0.998091
0.998681
0.999092
0.999375
0.99957
0.999704
0.999796
0.999858
0.999901
0.99993
0.99995
0.999964
0.999973
0.99998
0.999984
0.999988
0.99999
0.999992
0.999993
0.999993
0.999994
0.999994
0.999993
0.999993
0.999992
0.999989
0.999986
0.999979
0.999966
0.999938
0.999873
0.999704
0.99923
0.997859
0.994161
0.552873
0.670543
0.800573
0.883044
0.930787
0.958031
0.9734
0.982439
0.988059
0.99171
0.994164
0.995903
0.997136
0.998008
0.99862
0.999049
0.999346
0.99955
0.999691
0.999787
0.999853
0.999897
0.999928
0.999949
0.999963
0.999973
0.99998
0.999984
0.999988
0.99999
0.999992
0.999993
0.999994
0.999994
0.999994
0.999994
0.999993
0.999992
0.99999
0.999987
0.999981
0.999969
0.999943
0.999882
0.999716
0.999224
0.997738
0.993733
0.526413
0.645775
0.789779
0.881266
0.931692
0.959031
0.973932
0.9826
0.988024
0.991595
0.994025
0.995771
0.997025
0.997922
0.998557
0.999003
0.999314
0.99953
0.999677
0.999778
0.999847
0.999894
0.999926
0.999947
0.999962
0.999972
0.999979
0.999984
0.999988
0.99999
0.999992
0.999993
0.999994
0.999994
0.999994
0.999994
0.999994
0.999993
0.999991
0.999988
0.999983
0.999972
0.999949
0.999892
0.999729
0.999212
0.99757
0.993225
0.486719
0.609373
0.774346
0.879052
0.932803
0.96017
0.974524
0.982787
0.988003
0.991488
0.99389
0.995642
0.996916
0.997835
0.998492
0.998957
0.999283
0.999509
0.999664
0.99977
0.999842
0.99989
0.999924
0.999946
0.999962
0.999972
0.999979
0.999984
0.999988
0.99999
0.999992
0.999993
0.999994
0.999994
0.999995
0.999994
0.999994
0.999993
0.999992
0.999989
0.999984
0.999975
0.999954
0.999901
0.999741
0.999181
0.997287
0.992497
0.436585
0.562278
0.755476
0.877332
0.934264
0.961431
0.975151
0.982986
0.98799
0.991386
0.993764
0.995516
0.996808
0.99775
0.998429
0.998913
0.999252
0.999488
0.99965
0.999761
0.999836
0.999887
0.999922
0.999945
0.999961
0.999972
0.999979
0.999984
0.999988
0.99999
0.999992
0.999993
0.999994
0.999995
0.999995
0.999995
0.999994
0.999994
0.999992
0.99999
0.999985
0.999977
0.999958
0.999909
0.99975
0.999117
0.996801
0.991537
0.37786
0.505429
0.734508
0.876813
0.935979
0.962732
0.975776
0.983184
0.987981
0.991292
0.993641
0.995396
0.996705
0.99767
0.99837
0.99887
0.999223
0.999468
0.999637
0.999753
0.999831
0.999884
0.99992
0.999944
0.99996
0.999971
0.999979
0.999984
0.999988
0.99999
0.999992
0.999993
0.999994
0.999995
0.999995
0.999995
0.999995
0.999994
0.999993
0.999991
0.999987
0.999979
0.999962
0.999916
0.999757
0.999003
0.995976
0.990581
0.318209
0.443341
0.71432
0.878202
0.937791
0.964019
0.976378
0.983372
0.98798
0.991204
0.993527
0.995285
0.996611
0.997595
0.998313
0.998829
0.999195
0.999449
0.999625
0.999745
0.999826
0.999881
0.999918
0.999943
0.999959
0.999971
0.999979
0.999984
0.999988
0.99999
0.999992
0.999993
0.999994
0.999995
0.999995
0.999995
0.999995
0.999994
0.999993
0.999991
0.999988
0.999981
0.999965
0.999923
0.999763
0.998808
0.994631
0.990284
0.258116
0.377297
0.696089
0.881237
0.939302
0.965191
0.976916
0.983532
0.98796
0.991111
0.993418
0.995179
0.996519
0.997521
0.998258
0.99879
0.999167
0.99943
0.999612
0.999736
0.99982
0.999877
0.999915
0.999941
0.999959
0.99997
0.999979
0.999984
0.999988
0.99999
0.999992
0.999994
0.999994
0.999995
0.999995
0.999995
0.999995
0.999995
0.999994
0.999992
0.999988
0.999982
0.999968
0.999928
0.999765
0.998402
0.991621
0.990008
0.210079
0.315993
0.682893
0.885649
0.94017
0.966121
0.977287
0.983595
0.987863
0.990966
0.993265
0.995034
0.996396
0.997423
0.998183
0.998734
0.999127
0.999403
0.999593
0.999723
0.999812
0.999872
0.999912
0.999939
0.999957
0.99997
0.999978
0.999984
0.999988
0.99999
0.999992
0.999994
0.999994
0.999995
0.999995
0.999995
0.999995
0.999995
0.999994
0.999992
0.999989
0.999983
0.99997
0.999932
0.999767
0.997556
0.983389
0.988158
0.165091
0.25781
0.6732
0.89026
0.939894
0.966566
0.977271
0.983312
0.987498
0.99059
0.992913
0.994716
0.996128
0.997209
0.998021
0.998615
0.999043
0.999345
0.999554
0.999698
0.999795
0.999861
0.999905
0.999934
0.999954
0.999968
0.999977
0.999983
0.999987
0.99999
0.999992
0.999993
0.999994
0.999995
0.999995
0.999995
0.999995
0.999995
0.999994
0.999992
0.999989
0.999984
0.999973
0.999941
0.999793
0.996994
0.98956
0.994047
0.127229
0.206305
0.667156
0.895038
0.938897
0.966919
0.977218
0.983017
0.987129
0.990217
0.992573
0.994411
0.995876
0.997011
0.997874
0.998519
0.99898
0.999303
0.999526
0.999678
0.999781
0.99985
0.999897
0.999928
0.99995
0.999964
0.999974
0.999981
0.999985
0.999988
0.999991
0.999992
0.999993
0.999994
0.999994
0.999995
0.999995
0.999994
0.999993
0.999992
0.999989
0.999985
0.999975
0.999935
0.999625
-0.98836
-0.973881
-0.961106
0.109472
0.171304
0.667258
0.899811
0.937333
0.967258
0.97723
0.982873
0.986929
0.990017
0.992492
0.994403
0.995891
0.997011
0.997834
0.998424
0.998841
0.999132
0.999336
0.999482
0.999588
0.999668
0.999729
0.999778
0.999817
0.999849
0.999875
0.999896
0.999911
0.999924
0.999934
0.999942
0.999947
0.999951
0.999953
0.999954
0.999953
0.999948
0.999939
0.999925
0.999899
0.999842
0.999685
0.998846
0.989972
0.233822
-0.705593
-0.869543
0.085252
0.137655
0.664192
0.901167
0.932963
0.966357
0.976463
0.982267
0.986486
0.98964
0.99187
0.993274
0.993978
0.994094
0.993766
0.993171
0.992498
0.991924
0.991583
0.991546
0.9918
0.992292
0.992938
0.993656
0.994395
0.995113
0.995781
0.996358
0.996765
0.997136
0.997441
0.997622
0.997722
0.997789
0.997668
0.997512
0.9971
0.996466
0.995765
0.99528
0.994804
0.993658
0.990131
0.975426
0.89943
0.0436375
-0.283636
-0.183091
0.0657002
0.111776
0.650317
0.889735
0.91681
0.958145
0.96932
0.975464
0.97865
0.978324
0.974174
0.96655
0.956467
0.945506
0.935327
0.92718
0.921788
0.91929
0.919442
0.921816
0.925764
0.930673
0.935967
0.941226
0.946179
0.950629
0.954643
0.957839
0.959729
0.961863
0.963886
0.965042
0.965941
0.966601
0.965942
0.964298
0.95652
0.930434
0.824549
0.664102
0.893269
0.943094
0.947422
0.926865
0.870093
0.779422
0.693596
0.577872
0.0730079
0.109093
0.596418
0.826482
0.840538
0.911435
0.926997
0.927405
0.915006
0.893419
0.868123
0.844391
0.825212
0.811408
0.802082
0.796262
0.793114
0.792168
0.793465
0.796739
0.801233
0.806549
0.812154
0.817567
0.822356
0.826284
0.829601
0.830534
0.827999
0.824769
0.82053
0.8163
0.816498
0.81647
0.811867
0.796889
0.798469
0.790296
0.672908
0.254155
0.0903381
0.350205
0.478809
0.540452
0.584424
0.588615
0.570774
0.543852
0.0421315
0.104344
0.458111
0.643973
0.593033
0.765609
0.803381
0.791838
0.759975
0.727286
0.703689
0.690547
0.684892
0.683811
0.684884
0.687086
0.689779
0.692907
0.697325
0.702473
0.707561
0.712163
0.716002
0.718944
0.72075
0.721347
0.720786
0.717601
0.712794
0.704455
0.683654
0.63959
0.581475
0.536154
0.509989
0.48926
0.526851
0.592247
0.670745
0.727369
0.759055
0.763797
0.737819
0.65349
0.438932
-0.127588
-0.182681
0.0258527
0.0983999
0.155337
0.30765
0.402473
0.387615
0.63684
0.63988
0.593907
0.555333
0.539005
0.539701
0.54868
0.560444
0.572809
0.584597
0.596027
0.607026
0.617383
0.626405
0.633804
0.640635
0.646258
0.65042
0.653256
0.654869
0.655447
0.654951
0.65191
0.647747
0.643546
0.6415
0.633084
0.592408
0.484005
0.424044
0.435844
0.398458
-0.0121853
-0.633587
-0.7966
-0.858768
-0.886919
-0.901229
-0.903508
-0.899164
-0.895084
-0.880368
-0.861402
0.19237
0.11683
0.162774
0.250232
0.380844
0.467549
0.399415
0.346201
0.344268
0.36288
0.386132
0.410424
0.433864
0.45711
0.480508
0.502815
0.52215
0.538628
0.552195
0.562993
0.571079
0.576869
0.580871
0.583331
0.584361
0.584207
0.583008
0.579308
0.571979
0.557354
0.542918
0.572735
0.604767
0.590167
0.524142
0.413277
-0.152283
-0.600373
-0.745037
-0.800595
-0.822627
-0.829716
-0.822896
-0.80032
-0.770536
-0.748625
-0.720711
-0.703488
0.0871693
0.03054
0.0715993
0.1604
0.252094
0.199964
0.150629
0.185517
0.234401
0.271205
0.298239
0.321315
0.342448
0.362804
0.382544
0.402556
0.423676
0.444193
0.461843
0.475679
0.485536
0.492629
0.49772
0.501241
0.503285
0.504125
0.50405
0.502693
0.499576
0.485995
0.437044
0.355582
0.380338
0.546987
0.554827
0.379058
-0.0752298
-0.275616
-0.322328
-0.345874
-0.342194
-0.31153
-0.245882
-0.17234
-0.103692
-0.0292083
0.0625428
0.110352
0.174089
0.00956433
0.0320416
0.0684721
-0.00217506
0.0279771
0.0930847
0.150682
0.189937
0.217239
0.239448
0.259674
0.278223
0.295148
0.309581
0.322755
0.336016
0.348708
0.360305
0.370766
0.379998
0.387907
0.394534
0.399929
0.404088
0.406864
0.408553
0.410226
0.413798
0.41479
0.388994
0.229865
-0.10184
0.0940367
0.480298
0.518926
0.471873
0.420314
0.331518
0.237778
0.177369
0.157003
0.176738
0.231717
0.315795
0.39742
0.449535
0.467265
0.13742
-0.00673316
0.0124958
-0.0122804
-0.093079
0.00497892
0.0759545
0.111178
0.138775
0.162317
0.18337
0.202649
0.220008
0.235377
0.248127
0.259692
0.270046
0.279043
0.286755
0.293087
0.297671
0.301301
0.303694
0.305273
0.306196
0.306374
0.306001
0.305886
0.308526
0.316542
0.327599
0.287147
0.0358718
-0.279511
0.261733
0.56948
0.604736
0.548714
0.458355
0.36779
0.311242
0.3033
0.342129
0.396916
0.453359
0.487545
0.488415
0.4785
0.0910354
-0.0122715
0.00536178
-0.0267386
-0.0809864
-0.0285022
0.0153355
0.048519
0.0693883
0.0888525
0.10765
0.12568
0.142658
0.158363
0.172238
0.18828
0.203018
0.215907
0.226741
0.235282
0.241163
0.244939
0.247588
0.248927
0.249176
0.24783
0.244886
0.241039
0.237516
0.2398
0.259051
0.286818
0.243157
-0.100002
-0.152087
0.405619
0.573905
0.561824
0.515716
0.469906
0.442178
0.436999
0.437746
0.436842
0.397892
0.299652
0.121484
0.0448872
0.0678683
-0.0105764
0.00266402
-0.00341447
-0.0233755
-0.039531
-0.0480697
-0.0476585
-0.0430484
-0.0346258
-0.022764
-0.00710955
0.0128458
0.0364927
0.0625095
0.0808838
0.100138
0.119864
0.13912
0.156824
0.171668
0.183123
0.195601
0.205904
0.213186
0.217213
0.218181
0.216269
0.210892
0.204468
0.208729
0.244946
0.286223
0.199166
-0.214894
-0.278596
0.0271015
0.276473
0.359546
0.365286
0.317019
0.207177
-0.101461
-0.303377
-0.421655
-0.477103
-0.485143
-0.466008
0.0339546
-0.0066089
0.00119452
0.00929593
0.0263954
0.0208143
0.00816361
-0.0048761
-0.0109262
-0.015848
-0.020817
-0.0261931
-0.0319509
-0.0377699
-0.0431296
-0.0483243
-0.0507919
-0.0485838
-0.0396328
-0.0218033
0.0067391
0.0439566
0.0732904
0.101419
0.128471
0.152338
0.171534
0.185261
0.192182
0.191439
0.190117
0.205214
0.257518
0.295553
0.072516
-0.333217
-0.44762
-0.478921
-0.474395
-0.47831
-0.511659
-0.543231
-0.567678
-0.575344
-0.551305
-0.503999
-0.430694
-0.384858
0.0130966
-0.0024518
0.000324673
0.00281981
0.00944332
0.0157193
0.0208546
0.0251264
0.0281072
0.0301925
0.0312027
0.0307213
0.0280888
0.0224588
0.0132279
0.00595233
-0.00472996
-0.0188212
-0.0357155
-0.054362
-0.0731818
-0.0901762
-0.10536
-0.115605
-0.118489
-0.112065
-0.0945957
-0.0641847
-0.0202678
0.0326018
0.0690014
0.0956999
0.14739
0.243075
0.267201
0.0170598
-0.268626
-0.385991
-0.447083
-0.471838
-0.471565
-0.453446
-0.404521
-0.343682
-0.233161
-0.0909083
0.0471758
0.0824865
0.00306731
-0.000409869
3.1252e-05
6.39549e-05
7.64767e-05
0.000461449
0.00128456
0.00248
0.00378435
0.00540224
0.00744397
0.0100238
0.0132547
0.0172227
0.0218592
0.0264895
0.0310078
0.0346259
0.0361966
0.0341847
0.0267985
0.012031
-0.00387501
-0.0241957
-0.0488993
-0.0762812
-0.104265
-0.130641
-0.153473
-0.171877
-0.189247
-0.207626
-0.220884
-0.191087
-0.0886449
-0.0916942
-0.203444
-0.286892
-0.340906
-0.350083
-0.310273
-0.25044
-0.162367
-0.0852451
-0.0257488
0.0304627
0.0685835
0.0954221
0.000158386
-2.60439e-05
1.00667e-06
-2.32984e-06
-1.74834e-05
-4.01341e-05
-6.16484e-05
-7.81354e-05
-8.05804e-05
-6.68406e-05
-2.76029e-05
5.43555e-05
0.000208599
0.000483268
0.00094682
0.00157578
0.00256705
0.00410214
0.00640761
0.00973554
0.0142986
0.0202214
0.026938
0.0340956
0.0408173
0.0456974
0.0470089
0.0428076
0.0313515
0.0112472
-0.011905
-0.0394534
-0.0753796
-0.111082
-0.0982561
-0.0479974
-0.0431799
-0.0827522
-0.128382
-0.147577
-0.133739
-0.112775
-0.0890912
-0.0906407
-0.12325
-0.151165
-0.168329
-0.170247
-9.32649e-06
-3.64952e-07
4.98707e-08
5.12573e-08
-5.67373e-08
-2.85552e-07
-6.22409e-07
-1.03625e-06
-1.48511e-06
-2.02518e-06
-2.70016e-06
-3.5751e-06
-4.73308e-06
-6.22395e-06
-7.89743e-06
-7.93129e-06
-5.32467e-06
3.83507e-06
2.71116e-05
7.90703e-05
0.000185306
0.000388904
0.000705101
0.00122441
0.00206592
0.00337545
0.0053233
0.00810615
0.0118443
0.0165749
0.0220683
0.0278146
0.0326585
0.0346701
0.0373194
0.0503705
0.0653466
0.0761424
0.0818986
0.0812056
0.0738434
0.0639822
0.0516821
0.0389241
0.0240326
0.00663268
-0.00815619
-0.0307525
-9.34466e-08
3.15979e-10
4.39887e-10
4.52752e-10
4.10826e-10
-8.784e-11
-1.25111e-09
-3.24561e-09
-6.47538e-09
-1.15293e-08
-1.93144e-08
-3.12531e-08
-4.9676e-08
-7.83454e-08
-1.23184e-07
-1.92352e-07
-3.0221e-07
-4.79602e-07
-7.67524e-07
-1.23621e-06
-1.99437e-06
-3.21091e-06
-5.0141e-06
-7.70835e-06
-1.16611e-05
-1.72379e-05
-2.47313e-05
-3.43333e-05
-4.54304e-05
-5.65966e-05
-6.80222e-05
-7.65152e-05
-7.72804e-05
-7.82505e-05
-9.94899e-05
-7.58802e-05
0.000152561
0.00059799
0.00120405
0.0017802
0.00213999
0.00236748
0.00233749
0.00200366
0.00160906
0.00150685
0.00173934
0.00241429
-2.87785e-06
2.22573e-07
1.7858e-08
1.36305e-08
1.34095e-08
1.36884e-08
1.45538e-08
1.65977e-08
2.0455e-08
2.67332e-08
4.28337e-08
1.02337e-07
6.11606e-07
4.27233e-06
2.04825e-07
-1.14803e-08
-1.56554e-08
-1.01565e-08
1.05914e-08
1.17349e-07
4.13992e-07
1.20175e-06
3.26017e-06
8.4652e-06
2.09081e-05
4.94772e-05
0.000121089
0.000358333
0.00156932
0.00768295
0.000147666
1.43274e-05
-6.14321e-06
-8.265e-07
1.08348e-07
4.1164e-07
5.6142e-07
6.51156e-07
6.43917e-07
5.26614e-07
3.95444e-07
6.11377e-06
3.15714e-05
-3.22144e-05
4.50457e-05
7.44567e-07
8.24234e-08
1.86097e-06
3.23952e-06
4.69495e-06
6.68102e-06
8.59277e-06
1.35113e-06
-7.12035e-05
-0.000393873
-0.00135939
-0.00348351
-0.00882486
-0.0148543
-0.129027
-0.000193003
8.40275e-06
-0.00012371
-2.80708e-05
-1.68289e-05
-1.51093e-05
-1.50311e-05
-1.54388e-05
-1.58351e-05
-8.70051e-06
1.68891e-05
0.000207402
4.56238e-07
-0.000122975
0.00356149
4.0454e-05
-5.29552e-06
5.22841e-05
0.000299696
0.000990314
0.00258549
0.0059694
0.012478
0.0251546
0.0429491
0.067486
0.101026
0.142454
0.246716
0.0171013
-0.0026988
0.000239374
-0.000578002
-0.000119673
-4.47903e-05
2.27037e-06
7.14009e-05
0.000188101
0.000378949
0.000727666
0.0013398
0.0031435
0.000637846
0.00466483
0.0309788
0.00163063
0.000314129
0.00294774
0.00849914
0.0189431
0.0360409
0.0618978
0.0971488
0.145238
0.199454
0.259088
0.323008
0.383133
0.511955
0.124464
-0.00693327
0.000539597
-0.00224419
-0.000747977
-0.00037055
-0.000114103
0.00018706
0.000564753
0.000960556
0.00132313
0.00103499
0.0020635
-0.0102879
0.0099558
0.0943767
0.0222583
0.0229912
0.0333348
0.0522061
0.0838095
0.125863
0.178145
0.239414
0.310248
0.384185
0.454403
0.51831
0.565072
0.681362
0.486144
-0.0137951
0.0014336
-0.0054651
-0.00223737
-0.00153473
-0.00118518
-0.000910515
-0.000790078
-0.00113882
-0.00202687
-0.00466078
-0.00540996
-0.0265686
0.0216854
0.179445
0.0654023
0.0528857
0.085522
0.114804
0.161608
0.226828
0.303116
0.385998
0.467573
0.538438
0.597016
0.644877
0.669142
0.799713
0.843975
-0.0249353
0.00361217
-0.010148
-0.00430233
-0.00313348
-0.00275922
-0.00261007
-0.00277961
-0.00380702
-0.00506786
-0.00702773
0.00185966
-0.0212293
0.0555897
0.272721
0.133586
0.0359688
0.127262
0.191593
0.266961
0.348633
0.433854
0.511933
0.57899
0.632417
0.673937
0.707614
0.727302
0.880702
0.944272
-0.0407016
0.00755608
-0.0175452
-0.0075295
-0.00507781
-0.00414104
-0.00350445
-0.00312413
-0.00368961
-0.00382326
-0.00406351
0.0216958
-0.00442087
0.105704
0.36276
0.233615
0.166206
0.233883
0.29362
0.378861
0.456379
0.528368
0.589372
0.638985
0.678825
0.711557
0.743867
0.785107
0.92117
0.971002
-0.0594117
0.013747
-0.0304957
-0.0132137
-0.00757647
-0.00467544
-0.00203773
0.000638264
0.00303236
0.00765169
0.0149461
0.0675745
0.0302978
0.178646
0.449467
0.337964
0.311155
0.36596
0.403095
0.460539
0.529035
0.58597
0.634724
0.674029
0.706534
0.737099
0.776495
0.835826
0.936878
0.978957
-0.075222
0.0211047
-0.0460308
-0.0221004
-0.0123693
-0.00571239
0.00150818
0.00939423
0.0179411
0.0308614
0.0492447
0.130312
0.0744056
0.243986
0.531017
0.446407
0.432977
0.469183
0.498003
0.535415
0.584121
0.630972
0.669702
0.701563
0.729444
0.758653
0.80513
0.865727
0.940219
0.980541
-0.0769691
0.026073
-0.0569189
-0.0313142
-0.0186931
-0.00830054
0.00443473
0.0182755
0.0330608
0.0525801
0.0759034
0.170165
0.0950587
0.253981
0.58832
0.542011
0.551235
0.56154
0.579138
0.608218
0.636602
0.673107
0.70311
0.727678
0.75001
0.775676
0.822672
0.878671
0.936713
0.978544
-0.057116
0.0218823
-0.0518617
-0.0334336
-0.0207268
-0.0121008
-0.000429768
0.0152416
0.030569
0.0496931
0.0690728
0.158562
0.0804717
0.137093
0.597304
0.614975
0.643417
0.653396
0.653353
0.672458
0.692664
0.71395
0.73567
0.752627
0.768167
0.788186
0.829752
0.881052
0.928856
0.973208
-0.029219
0.009225
-0.027713
-0.0216903
-0.0147787
-0.00979716
-0.00230585
0.007924
0.0178297
0.0307389
0.0435733
0.102659
0.0455179
0.00237311
0.532636
0.657772
0.703697
0.732837
0.722851
0.730203
0.743897
0.755054
0.767224
0.776564
0.784555
0.797429
0.829632
0.876299
0.917813
0.963736
-0.014319
0.000986399
-0.00583273
-0.00593766
-0.00433628
-0.00277255
-6.35831e-05
0.00367553
0.00750495
0.0122559
0.0163601
0.0350741
0.0317682
0.103288
0.372542
0.663151
0.730243
0.774299
0.780609
0.78081
0.7862
0.792604
0.79607
0.797991
0.797822
0.801204
0.821805
0.864651
0.903832
0.948582
-0.0107326
0.00043027
-0.000180729
-0.000349204
-0.000281503
-0.000162553
9.43506e-05
0.000514867
0.00101787
0.0017424
0.00284262
0.0116881
0.0529885
0.230743
0.311737
0.621383
0.725104
0.778451
0.8036
0.814412
0.81602
0.817868
0.816239
0.811008
0.80137
0.791792
0.799446
0.842137
0.88619
0.925379
-0.0094537
0.00140258
-0.000479972
-0.000213259
-7.59476e-05
-2.03749e-05
4.40631e-05
0.000167878
0.000411651
0.00101489
0.00265708
0.0132782
0.0701003
0.276361
0.463455
0.518899
0.681217
0.746453
0.781933
0.808265
0.819589
0.820277
0.815266
0.801716
0.777106
0.74538
0.737997
0.798276
0.865516
0.892965
-0.00775952
0.00151183
-0.000757975
-0.000464975
-0.000156291
-7.38796e-06
0.000147594
0.000390938
0.000790443
0.00165961
0.00385393
0.0152069
0.0760493
0.280405
0.570932
0.386986
0.58418
0.671955
0.717083
0.747161
0.771555
0.776378
0.764058
0.728902
0.657859
0.556222
0.550025
0.721884
0.848877
0.858641
-0.00584893
0.00111809
-0.000636275
-0.000456524
-0.000137751
3.87419e-05
0.000222444
0.0005097
0.000977671
0.00196345
0.00444381
0.0155252
0.0762525
0.269426
0.604872
0.326034
0.433732
0.533072
0.58698
0.615742
0.624537
0.619203
0.561115
0.398394
-0.0459749
-0.310507
-0.00728708
0.642981
0.839925
0.831456
-0.00405578
0.000666545
-0.000437525
-0.000362696
-9.19236e-05
8.28097e-05
0.000267627
0.000563635
0.00106132
0.00210637
0.0047727
0.0152875
0.0735406
0.253669
0.597036
0.343419
0.294607
0.345619
0.379312
0.383181
0.339766
0.207748
-0.127583
-0.41035
-0.542242
-0.554142
-0.31872
0.575962
0.817825
0.78968
-0.00260923
0.000307577
-0.000262608
-0.000257128
-4.60888e-05
0.000118292
0.000299548
0.000598112
0.00111776
0.00220862
0.0050167
0.0148911
0.0688649
0.234131
0.563918
0.368692
0.228284
0.196216
0.167091
0.10561
-0.0459076
-0.245559
-0.415195
-0.532425
-0.590132
-0.572489
-0.369092
0.462932
0.764318
0.701585
-0.00155081
7.61569e-05
-0.000138923
-0.000164862
-7.97436e-06
0.000144504
0.000323895
0.000626306
0.00116715
0.00229834
0.00520592
0.0144118
0.062668
0.211065
0.512785
0.373063
0.210193
0.125622
0.0407371
-0.070761
-0.200107
-0.332776
-0.447793
-0.530165
-0.567601
-0.543042
-0.38071
0.275658
0.668972
0.532791
-0.000829193
-3.81402e-05
-6.05413e-05
-9.049e-05
2.41506e-05
0.00016539
0.000345482
0.000653963
0.00121492
0.00237816
0.00533008
0.0138386
0.0553797
0.184748
0.447771
0.356314
0.202599
0.101578
-0.00394376
-0.113207
-0.223024
-0.331048
-0.424797
-0.492152
-0.521859
-0.498545
-0.378923
0.0189187
0.520299
0.24187
-0.000404646
-7.37537e-05
-1.63999e-05
-3.51486e-05
5.03102e-05
0.000182057
0.000364972
0.000680886
0.00125839
0.00243932
0.0053657
0.0131321
0.047496
0.155979
0.373091
0.323396
0.190953
0.0920815
-0.0108227
-0.111077
-0.207064
-0.299423
-0.379414
-0.436941
-0.463102
-0.445701
-0.363242
-0.166593
0.314034
-0.134589
-0.000179404
-6.61031e-05
7.27457e-06
4.39876e-06
7.23284e-05
0.000196697
0.0003833
0.000706054
0.00129292
0.0024699
0.00528984
0.0122502
0.0395302
0.126176
0.294468
0.279026
0.172951
0.0844508
-0.0066091
-0.0949164
-0.177535
-0.255993
-0.323977
-0.373505
-0.397224
-0.387701
-0.335584
-0.232784
0.0765573
-0.272033
-6.96174e-05
-4.26117e-05
2.01166e-05
3.19061e-05
9.09652e-05
0.000209558
0.000398832
0.000725008
0.00130974
0.0024538
0.00508224
0.0111605
0.0319299
0.097217
0.21889
0.22782
0.149771
0.075578
-0.000391792
-0.0749297
-0.143842
-0.208593
-0.264701
-0.306091
-0.327648
-0.325027
-0.294705
-0.240828
-0.0929199
-0.298147
-2.31249e-05
-2.08398e-05
2.66957e-05
4.98736e-05
0.000105907
0.000219783
0.000409002
0.000732345
0.00129965
0.00237689
0.00473501