/*--------------------------------*- C++ -*----------------------------------*\
| =========                 |                                                 |
| \\      /  F ield         | OpenFOAM: The Open Source CFD Toolbox           |
|  \\    /   O peration     | Version:  2212                                  |
|   \\  /    A nd           | Website:  www.openfoam.com                      |
|    \\/     M anipulation  |                                                 |
\*---------------------------------------------------------------------------*/
FoamFile
{
    version     2.0;
    format      ascii;
    arch        "LSB;label=32;scalar=64";
    class       volScalarField;
    location    "10000";
    object      theta2_Scaled_;
}
// * * * * * * * * * * * * * * * * * * * * * * * * * * * * * * * * * * * * * //

dimensions      [0 0 0 0 0 0 0];

internalField   nonuniform List<scalar> 
18080
(
-1.3778e-05
-0.00142866
-0.00566427
-0.0129893
-0.0232496
-0.0361725
-0.0513991
-0.0685536
-0.0873064
-0.107596
-0.130429
-0.156385
-0.186177
-0.220553
-0.260081
-0.304884
-0.35441
-0.407347
-0.461816
-0.515776
-0.567495
-0.615871
-0.660477
-0.701403
-0.738957
-0.773394
-0.80473
-0.832691
-0.857066
-0.877664
-0.89442
-0.90763
-0.917775
-0.925321
-0.930832
-0.934801
-0.937704
-0.939992
-0.942042
-0.944137
-0.946419
-0.948874
-0.951373
-0.953738
-0.955774
-0.957312
-0.958306
-0.95886
-4.44396e-06
-0.00243348
-0.00819061
-0.0180217
-0.0320945
-0.0504383
-0.0728621
-0.0990156
-0.128469
-0.160826
-0.196774
-0.23716
-0.282304
-0.332297
-0.386752
-0.44463
-0.504231
-0.563422
-0.620066
-0.672448
-0.719553
-0.761082
-0.797273
-0.828654
-0.855805
-0.879214
-0.899224
-0.916051
-0.92993
-0.941103
-0.949852
-0.956543
-0.961552
-0.965212
-0.967842
-0.969703
-0.97103
-0.972025
-0.972851
-0.973625
-0.974412
-0.975217
-0.976006
-0.976724
-0.977306
-0.977695
-0.977879
-0.977907
-0.00019184
-0.000945414
-0.00319975
-0.00752452
-0.0145805
-0.0250984
-0.0397275
-0.0589543
-0.0830394
-0.112
-0.146373
-0.186748
-0.233126
-0.285155
-0.341998
-0.402306
-0.464282
-0.525893
-0.585192
-0.640596
-0.691076
-0.736181
-0.775913
-0.810565
-0.840548
-0.866279
-0.888127
-0.90639
-0.921432
-0.933592
-0.943206
-0.950681
-0.956419
-0.960752
-0.964011
-0.966449
-0.968287
-0.9697
-0.970816
-0.971725
-0.972479
-0.973096
-0.973574
-0.973907
-0.974079
-0.974065
-0.973891
-0.973749
-0.000717639
-0.000182579
-0.000798171
-0.00230285
-0.00524822
-0.0103521
-0.0184126
-0.0302297
-0.0465047
-0.0677444
-0.0946811
-0.128081
-0.168216
-0.214982
-0.267779
-0.3255
-0.386577
-0.449141
-0.511254
-0.571147
-0.627414
-0.679101
-0.725683
-0.766989
-0.803086
-0.83421
-0.860679
-0.882825
-0.901147
-0.916089
-0.928068
-0.937573
-0.945065
-0.950897
-0.955442
-0.958954
-0.961665
-0.963747
-0.965327
-0.966498
-0.967324
-0.96785
-0.968104
-0.968118
-0.967911
-0.967492
-0.966935
-0.966553
-0.00140983
-3.59049e-05
-0.000235605
-0.000863574
-0.00228324
-0.00501345
-0.00968964
-0.0170212
-0.0277234
-0.0424375
-0.0619732
-0.0872387
-0.118842
-0.157129
-0.202044
-0.253069
-0.309194
-0.368979
-0.430707
-0.492559
-0.552835
-0.610099
-0.663248
-0.711547
-0.754578
-0.792226
-0.824593
-0.851886
-0.874655
-0.893373
-0.908505
-0.920636
-0.930316
-0.937936
-0.943958
-0.948655
-0.95231
-0.955117
-0.957226
-0.958749
-0.959769
-0.960347
-0.960535
-0.960397
-0.959984
-0.959309
-0.958487
-0.958174
-0.00250515
-3.3607e-06
-6.38055e-05
-0.000340865
-0.00106994
-0.00260921
-0.00542393
-0.0100683
-0.0171446
-0.0272519
-0.0411371
-0.0596858
-0.0836411
-0.113623
-0.149993
-0.19278
-0.241595
-0.295608
-0.3536
-0.414037
-0.475253
-0.535584
-0.593501
-0.647734
-0.697305
-0.741619
-0.780395
-0.813543
-0.841577
-0.864885
-0.883916
-0.899336
-0.911784
-0.921669
-0.92958
-0.935798
-0.940681
-0.944453
-0.947291
-0.949335
-0.950689
-0.951441
-0.951667
-0.951468
-0.950921
-0.950033
-0.948984
-0.948719
-0.00418001
-5.90314e-07
-1.09419e-05
-0.000131697
-0.000520629
-0.00142372
-0.00317365
-0.00618386
-0.0109267
-0.0179007
-0.0277327
-0.0411969
-0.0590217
-0.0819155
-0.110453
-0.145022
-0.185722
-0.232302
-0.284141
-0.340222
-0.399233
-0.459633
-0.519762
-0.578008
-0.632895
-0.683301
-0.728442
-0.767747
-0.801607
-0.830172
-0.853777
-0.873138
-0.88896
-0.901621
-0.911885
-0.919999
-0.926426
-0.931418
-0.935189
-0.937916
-0.939735
-0.940766
-0.94112
-0.94095
-0.940366
-0.939348
-0.938136
-0.938273
-0.00672344
-6.1079e-06
-7.90256e-08
-4.94475e-05
-0.000268103
-0.000826521
-0.00196093
-0.00397273
-0.0072178
-0.0120872
-0.0190776
-0.028824
-0.0419644
-0.0591776
-0.0810929
-0.10827
-0.141107
-0.179778
-0.224186
-0.273876
-0.32806
-0.3856
-0.445035
-0.504719
-0.5629
-0.618038
-0.668829
-0.71409
-0.754034
-0.788378
-0.817203
-0.841217
-0.861137
-0.877217
-0.890443
-0.900962
-0.909376
-0.915958
-0.920968
-0.924631
-0.927126
-0.928616
-0.929255
-0.929254
-0.928751
-0.92767
-0.926344
-0.926944
-0.0106182
-1.39425e-05
-3.11629e-06
-1.77973e-05
-0.000149689
-0.000518433
-0.00129147
-0.00268517
-0.00496021
-0.00841156
-0.0134177
-0.0204781
-0.0301142
-0.0429186
-0.059481
-0.0803988
-0.106202
-0.137313
-0.174
-0.216268
-0.26386
-0.316162
-0.372153
-0.430469
-0.489394
-0.547225
-0.602264
-0.652684
-0.698543
-0.738917
-0.773467
-0.802812
-0.827596
-0.847795
-0.864692
-0.878208
-0.889141
-0.897764
-0.90439
-0.909305
-0.912737
-0.914905
-0.916009
-0.916343
-0.916066
-0.915019
-0.913645
-0.915014
-0.0164958
-2.29688e-05
-1.06133e-05
-5.71407e-06
-9.09638e-05
-0.000350745
-0.000903433
-0.00190233
-0.00353425
-0.00601492
-0.00962521
-0.0147456
-0.0217834
-0.0312265
-0.0435804
-0.0594018
-0.0792383
-0.103613
-0.13299
-0.167677
-0.207834
-0.253337
-0.303693
-0.358029
-0.414962
-0.472953
-0.530178
-0.584272
-0.635297
-0.681522
-0.722033
-0.757274
-0.787695
-0.812773
-0.834178
-0.851413
-0.86554
-0.876791
-0.885533
-0.892121
-0.896843
-0.899978
-0.90179
-0.902663
-0.902773
-0.901843
-0.900481
-0.902702
-0.0251063
-3.38476e-05
-2.05593e-05
-1.05877e-06
-5.7625e-05
-0.000248903
-0.000658088
-0.00139236
-0.00258317
-0.00438459
-0.0070002
-0.0107137
-0.0158316
-0.0227406
-0.0318483
-0.0436341
-0.0585968
-0.077259
-0.100151
-0.127727
-0.160401
-0.198417
-0.24175
-0.290074
-0.342522
-0.398008
-0.454908
-0.51056
-0.565335
-0.61664
-0.662895
-0.70432
-0.741034
-0.771717
-0.798541
-0.820308
-0.838424
-0.853002
-0.864457
-0.873217
-0.879632
-0.884058
-0.88683
-0.888449
-0.8891
-0.888368
-0.887074
-0.890272
-0.0372395
-4.67523e-05
-3.2906e-05
-2.10952e-08
-3.58039e-05
-0.000179102
-0.000487871
-0.00103609
-0.00191483
-0.00323202
-0.00513212
-0.00782351
-0.0115296
-0.0165483
-0.0231944
-0.0318587
-0.0429615
-0.0569695
-0.0743918
-0.0957121
-0.121454
-0.152067
-0.187859
-0.228967
-0.275066
-0.325678
-0.379657
-0.434341
-0.49081
-0.545724
-0.596875
-0.644294
-0.687665
-0.724514
-0.757662
-0.784811
-0.807801
-0.8265
-0.841346
-0.852837
-0.861386
-0.867441
-0.871427
-0.873985
-0.875297
-0.874805
-0.87361
-0.877723
-0.0535429
-6.22791e-05
-4.84614e-05
-1.72422e-06
-1.98846e-05
-0.000125936
-0.000360026
-0.000772702
-0.00142625
-0.00239512
-0.00377977
-0.00573135
-0.00840802
-0.0120351
-0.0168463
-0.023149
-0.0312786
-0.0416223
-0.0546231
-0.0707215
-0.0904441
-0.114312
-0.142803
-0.176364
-0.215109
-0.259161
-0.307979
-0.359154
-0.414857
-0.471258
-0.525727
-0.578287
-0.628169
-0.671386
-0.711601
-0.744901
-0.773655
-0.7973
-0.816244
-0.831038
-0.842155
-0.850149
-0.855565
-0.859205
-0.861241
-0.860986
-0.859894
-0.864796
-0.0740707
-7.85264e-05
-6.57369e-05
-5.96367e-06
-8.96544e-06
-8.50951e-05
-0.000262616
-0.000576152
-0.0010681
-0.00178911
-0.00280775
-0.00423251
-0.00617294
-0.00879655
-0.0122719
-0.0168346
-0.022742
-0.0302997
-0.0398685
-0.0518123
-0.0665995
-0.0847272
-0.106713
-0.13315
-0.164426
-0.201127
-0.243278
-0.288857
-0.341326
-0.396697
-0.452255
-0.508334
-0.563851
-0.613046
-0.660676
-0.700628
-0.735905
-0.76525
-0.788962
-0.8076
-0.821683
-0.83189
-0.838904
-0.843715
-0.846472
-0.846404
-0.8454
-0.850894
-0.0981881
-9.48087e-05
-8.40314e-05
-1.27471e-05
-2.35826e-06
-5.37412e-05
-0.000188229
-0.00043031
-0.000809021
-0.00135842
-0.00212422
-0.00318382
-0.00461096
-0.0065295
-0.00905788
-0.0123737
-0.0166692
-0.0221772
-0.0291787
-0.037953
-0.0488841
-0.0623942
-0.0789538
-0.0991731
-0.123556
-0.152956
-0.187813
-0.22647
-0.273643
-0.325449
-0.379458
-0.436728
-0.496181
-0.550212
-0.605016
-0.651686
-0.693994
-0.729665
-0.758755
-0.781762
-0.799205
-0.811889
-0.820661
-0.826717
-0.83015
-0.830188
-0.829255
-0.83512
-0.124286
-0.000108631
-0.000100673
-2.15232e-05
-1.9642e-08
-3.14828e-05
-0.000134749
-0.000328704
-0.000633712
-0.00107216
-0.00167337
-0.00249231
-0.0035767
-0.00501883
-0.00689919
-0.00935151
-0.0125165
-0.0165677
-0.0217167
-0.0281647
-0.0362068
-0.046175
-0.0584509
-0.0735761
-0.0920486
-0.114822
-0.14257
-0.173911
-0.214574
-0.260871
-0.310878
-0.366714
-0.42772
-0.484619
-0.545526
-0.598258
-0.647591
-0.689896
-0.724823
-0.752671
-0.773869
-0.789316
-0.800023
-0.807387
-0.811406
-0.811431
-0.810528
-0.816588
-0.150071
-0.000119094
-0.000114538
-3.21846e-05
-1.38652e-06
-1.70799e-05
-9.98266e-05
-0.000266408
-0.000531459
-0.000908552
-0.00141458
-0.00208823
-0.00295805
-0.00409354
-0.00554769
-0.00742181
-0.00981789
-0.012863
-0.0167121
-0.0215027
-0.0274474
-0.0347725
-0.0441922
-0.0570287
-0.0736472
-0.0945639
-0.119902
-0.147519
-0.181874
-0.220596
-0.263667
-0.314326
-0.372626
-0.428192
-0.491445
-0.547031
-0.601121
-0.648634
-0.688659
-0.721062
-0.745947
-0.764144
-0.776727
-0.78521
-0.789388
-0.788971
-0.787776
-0.793559
-0.172658
-0.000124925
-0.000124312
-4.45994e-05
-5.60945e-06
-9.11105e-06
-8.20086e-05
-0.000241576
-0.000497812
-0.000856202
-0.00132273
-0.00192355
-0.00267236
-0.00362222
-0.00480631
-0.00630241
-0.00818368
-0.0105428
-0.0134912
-0.0170905
-0.0224365
-0.0298656
-0.0385111
-0.0483616
-0.0609787
-0.0776763
-0.0996251
-0.12836
-0.167906
-0.206662
-0.243437
-0.285719
-0.33667
-0.385668
-0.445675
-0.498792
-0.553288
-0.603014
-0.646473
-0.68276
-0.711202
-0.732185
-0.746578
-0.755825
-0.759361
-0.757589
-0.755227
-0.760041
-0.189439
-0.000125033
-0.000129144
-5.87382e-05
-1.12599e-05
-6.00199e-06
-8.20999e-05
-0.000258534
-0.000539125
-0.000919484
-0.00139382
-0.00197772
-0.00267218
-0.0035186
-0.00453545
-0.00578438
-0.00731883
-0.00919401
-0.0120595
-0.0158518
-0.0195158
-0.0237937
-0.029576
-0.0363843
-0.0436922
-0.0523361
-0.0630066
-0.0749527
-0.096104
-0.126047
-0.166693
-0.214247
-0.260859
-0.300864
-0.357363
-0.407189
-0.46234
-0.516029
-0.56625
-0.610698
-0.647005
-0.674419
-0.693186
-0.704442
-0.706905
-0.70236
-0.697022
-0.699232
-0.198484
-0.0001196
-0.000129804
-7.53315e-05
-1.65496e-05
-6.9021e-06
-0.000105541
-0.000330838
-0.000674648
-0.00111805
-0.00164048
-0.00224775
-0.00292928
-0.0037186
-0.00462424
-0.00569367
-0.00721364
-0.00938089
-0.0114708
-0.0140137
-0.0169696
-0.019459
-0.0214328
-0.0234162
-0.0254507
-0.0279922
-0.0313047
-0.0344257
-0.0421689
-0.0519582
-0.0643107
-0.0882195
-0.127735
-0.166122
-0.212576
-0.247604
-0.298396
-0.355277
-0.416793
-0.477832
-0.531627
-0.573973
-0.603087
-0.619163
-0.619611
-0.608882
-0.595497
-0.589648
-0.19894
-0.000106396
-0.000124199
-9.30351e-05
-1.84844e-05
-1.51146e-05
-0.000170508
-0.000491773
-0.000947248
-0.0014965
-0.00209998
-0.00275483
-0.00344071
-0.00418626
-0.00511513
-0.00650303
-0.00798076
-0.00954494
-0.0112051
-0.0122443
-0.0129532
-0.0134073
-0.0135439
-0.0134152
-0.0130201
-0.0126786
-0.0125097
-0.0117637
-0.013501
-0.0157046
-0.0185638
-0.0253668
-0.0372486
-0.0492756
-0.0742123
-0.0883011
-0.108069
-0.148421
-0.210559
-0.288767
-0.368489
-0.435825
-0.482219
-0.504623
-0.498049
-0.47159
-0.436489
-0.406122
-0.191296
-8.86336e-05
-0.000115941
-0.000114219
-1.58291e-05
-4.14533e-05
-0.000309323
-0.000789117
-0.00140923
-0.00210064
-0.00280111
-0.00350193
-0.00425991
-0.0053301
-0.00650566
-0.00756241
-0.00859204
-0.00911643
-0.00930021
-0.00927913
-0.00901167
-0.00842281
-0.0074709
-0.00622779
-0.00475803
-0.00335404
-0.00212901
-0.000887787
-0.000580495
-0.000335891
-0.000184387
-0.000464951
-0.00164295
-0.00181451
-0.00307613
-0.00170212
-0.00257539
-0.00540315
-0.0227734
-0.08003
-0.170854
-0.265386
-0.333869
-0.361765
-0.339209
-0.282218
-0.20744
-0.137415
-0.176907
-6.52219e-05
-0.000102478
-0.000136358
-7.8383e-06
-0.000113154
-0.000579702
-0.00129375
-0.0021285
-0.002983
-0.00376915
-0.00479564
-0.00590998
-0.00678911
-0.0074909
-0.0077103
-0.00750964
-0.0072186
-0.00681421
-0.00621235
-0.00538002
-0.00428128
-0.00295342
-0.00158755
-0.000460318
-1.48322e-07
-0.000534306
-0.00284251
-0.00541531
-0.00916573
-0.0138019
-0.0159306
-0.0163438
-0.0248574
-0.0314981
-0.0514422
-0.0650356
-0.0583849
-0.0252469
-0.000107266
-0.038167
-0.132961
-0.215186
-0.240959
-0.193025
-0.103598
-0.021173
-0.00243249
-0.158467
-4.11676e-05
-8.77351e-05
-0.00016238
-3.8305e-07
-0.000275646
-0.00105161
-0.00207297
-0.00315346
-0.00423031
-0.00556981
-0.0065767
-0.00722199
-0.00729521
-0.00684029
-0.00630316
-0.00569806
-0.00502825
-0.00428094
-0.00339892
-0.00239058
-0.00131448
-0.000376261
-4.79413e-06
-0.000854952
-0.00367539
-0.00926915
-0.019786
-0.0308507
-0.0458499
-0.0635407
-0.0768282
-0.0905823
-0.131968
-0.177067
-0.249892
-0.286401
-0.255449
-0.163198
-0.0489185
-0.000416351
-0.0691672
-0.15727
-0.17338
-0.0982826
-0.00997403
-0.0365577
-0.1972
-0.138627
-2.00807e-05
-7.30767e-05
-0.000193721
-7.59189e-06
-0.000590048
-0.00178882
-0.00316287
-0.00447796
-0.00609053
-0.00716262
-0.00743119
-0.0069661
-0.00632618
-0.00554852
-0.00471513
-0.00385711
-0.00299187
-0.00212637
-0.00125736
-0.000481049
-1.87682e-05
-0.000346149
-0.00227002
-0.00702007
-0.0158532
-0.0302777
-0.0539909
-0.0790163
-0.111602
-0.14829
-0.179234
-0.216657
-0.301545
-0.39013
-0.493674
-0.540282
-0.511854
-0.37881
-0.153367
-0.00726999
-0.049413
-0.149913
-0.15426
-0.0534283
-0.00709557
-0.197438
-0.451066
-0.119728
-5.06273e-06
-5.81607e-05
-0.000229582
-5.76521e-05
-0.00112997
-0.00284635
-0.00458083
-0.0066873
-0.00794656
-0.00788239
-0.00737092
-0.00656182
-0.00559049
-0.00451861
-0.00344872
-0.00242764
-0.0014977
-0.000707511
-0.000142575
-3.89216e-05
-0.000864008
-0.00348572
-0.00924918
-0.0201605
-0.0381018
-0.065324
-0.106756
-0.149723
-0.203099
-0.259817
-0.309046
-0.369961
-0.484282
-0.588624
-0.683563
-0.719865
-0.696304
-0.582654
-0.317393
-0.0279309
-0.0361923
-0.15237
-0.150279
-0.0336644
-0.0430276
-0.345923
-0.601857
-0.103432
-7.1138e-09
-4.81909e-05
-0.000278587
-0.000188662
-0.00192717
-0.00418537
-0.00638475
-0.00822341
-0.00838507
-0.00795221
-0.00711588
-0.00599147
-0.00473894
-0.00344421
-0.00223752
-0.00119774
-0.000416697
-1.78072e-05
-0.000229082
-0.00150194
-0.00466774
-0.0111374
-0.0229523
-0.0430283
-0.0737547
-0.11771
-0.179973
-0.241962
-0.314449
-0.386333
-0.448046
-0.521973
-0.639875
-0.733054
-0.803809
-0.826952
-0.808099
-0.721836
-0.487603
-0.0932852
-0.0283882
-0.177158
-0.195336
-0.07343
-0.0142217
-0.304965
-0.577972
-0.0904043
-5.13081e-06
-3.76474e-05
-0.000330589
-0.000454782
-0.00300188
-0.00575413
-0.00855757
-0.00912629
-0.00896763
-0.0081638
-0.00694574
-0.00547224
-0.00393557
-0.00245989
-0.00121885
-0.000343056
-3.13344e-08
-0.000429506
-0.00206916
-0.00567533
-0.0125741
-0.0248561
-0.0453406
-0.0777811
-0.124558
-0.187571
-0.270333
-0.348291
-0.433334
-0.51184
-0.577319
-0.651183
-0.753721
-0.825672
-0.874249
-0.888038
-0.873411
-0.811162
-0.628506
-0.214733
-0.0171206
-0.220399
-0.311608
-0.259521
-0.114936
-7.10719e-05
-0.048788
-0.0807494
-1.55101e-05
-3.58791e-05
-0.000404062
-0.000873516
-0.00423314
-0.00731172
-0.00934891
-0.00962279
-0.00908725
-0.00788949
-0.00630279
-0.0045467
-0.00284993
-0.00138191
-0.000365907
-1.04208e-06
-0.000556862
-0.00243443
-0.0063551
-0.0134786
-0.0257635
-0.0461128
-0.0781641
-0.126253
-0.191924
-0.274941
-0.375368
-0.464252
-0.553772
-0.630562
-0.692149
-0.756458
-0.835472
-0.886463
-0.91872
-0.927912
-0.920963
-0.892526
-0.825871
-0.701318
-0.5272
-0.41548
-0.423337
-0.425897
-0.38744
-0.35392
-0.10199
-0.0730681
-3.04152e-05
-3.30788e-05
-0.000455191
-0.00153051
-0.00569453
-0.00925327
-0.010143
-0.0100354
-0.00910231
-0.00758142
-0.00582491
-0.00412365
-0.00269381
-0.00160095
-0.000871055
-0.000405354
-0.000123647
-3.53651e-07
-0.000215532
-0.00145486
-0.00548456
-0.0159544
-0.0389513
-0.0832118
-0.155488
-0.257696
-0.386786
-0.503089
-0.614682
-0.707718
-0.782646
-0.850238
-0.910847
-0.944945
-0.964776
-0.974007
-0.978678
-0.981125
-0.982613
-0.983727
-0.984165
-0.983018
-0.974491
-0.916931
-0.0172006
-0.919801
-0.979759
-0.0680452
-4.10245e-05
-2.35e-05
-0.000299063
-0.0031987
-0.0088249
-0.013161
-0.0140636
-0.0142568
-0.0146115
-0.0166432
-0.022617
-0.0367596
-0.0659723
-0.117536
-0.193228
-0.283289
-0.371127
-0.443159
-0.4934
-0.522103
-0.531514
-0.523876
-0.500607
-0.461365
-0.405684
-0.330919
-0.231386
-0.132778
-0.0411982
-2.24588e-05
-0.0705477
-0.355953
-0.715493
-0.874837
-0.937464
-0.961862
-0.97364
-0.980711
-0.984355
-0.985175
-0.982957
-0.973277
-0.922612
-0.404135
-0.681491
-0.905276
-0.948534
-0.0651095
-5.68744e-05
-5.10224e-05
-0.000671484
-0.0166464
-0.0309991
-0.0410712
-0.0536481
-0.0819365
-0.146696
-0.270352
-0.437098
-0.587602
-0.686903
-0.740678
-0.765581
-0.773318
-0.770802
-0.761887
-0.74891
-0.733475
-0.716639
-0.699084
-0.681243
-0.663713
-0.647082
-0.630814
-0.613402
-0.598224
-0.587972
-0.59114
-0.620889
-0.673617
-0.71401
-0.725704
-0.688097
-0.58897
-0.330561
-0.0162912
-0.609608
-0.863403
-0.930278
-0.951346
-0.952548
-0.938603
-0.913544
-0.857982
-0.736064
-0.0621398
-0.000560935
-0.0102934
-0.0721905
-0.193935
-0.270314
-0.356999
-0.496934
-0.658489
-0.771168
-0.824821
-0.84365
-0.845146
-0.837815
-0.82572
-0.810892
-0.794515
-0.777374
-0.7597
-0.742089
-0.725297
-0.709836
-0.69591
-0.683504
-0.672535
-0.662944
-0.654729
-0.646959
-0.640175
-0.638556
-0.650853
-0.691872
-0.765241
-0.843066
-0.89785
-0.926352
-0.935452
-0.920677
-0.848729
-0.435095
-0.339759
-0.790305
-0.867784
-0.868248
-0.835298
-0.794867
-0.735861
-0.653518
-0.0566554
-0.0224612
-0.247856
-0.559259
-0.699665
-0.76765
-0.832506
-0.874597
-0.890424
-0.890916
-0.884177
-0.874135
-0.862447
-0.849633
-0.83585
-0.821182
-0.805923
-0.790514
-0.775861
-0.762742
-0.751114
-0.741057
-0.732504
-0.725212
-0.718933
-0.713532
-0.709014
-0.704623
-0.698978
-0.691644
-0.683731
-0.685703
-0.716756
-0.784627
-0.853236
-0.894953
-0.912452
-0.900547
-0.847416
-0.713856
-0.491769
-0.314488
-0.284556
-0.391531
-0.513897
-0.566183
-0.574583
-0.547863
-0.0253692
-0.369769
-0.748176
-0.846481
-0.883009
-0.904682
-0.916655
-0.916524
-0.910351
-0.901809
-0.892223
-0.881931
-0.871097
-0.859909
-0.848696
-0.837801
-0.827588
-0.818361
-0.81078
-0.804887
-0.800389
-0.796986
-0.79436
-0.792242
-0.790451
-0.788889
-0.787546
-0.786479
-0.784444
-0.778497
-0.76375
-0.735421
-0.69979
-0.692438
-0.734532
-0.790539
-0.834639
-0.867167
-0.886882
-0.900952
-0.912825
-0.922168
-0.929374
-0.933493
-0.934309
-0.932126
-0.925968
-0.915865
-0.0900771
-0.806615
-0.887494
-0.909618
-0.923279
-0.931101
-0.928359
-0.921513
-0.913174
-0.904265
-0.894729
-0.884904
-0.875553
-0.867161
-0.859939
-0.853994
-0.84935
-0.845855
-0.843194
-0.841065
-0.839526
-0.838368
-0.837424
-0.836604
-0.835841
-0.835044
-0.834179
-0.83367
-0.833524
-0.831876
-0.822593
-0.800901
-0.75819
-0.694961
-0.691164
-0.753025
-0.816986
-0.885718
-0.92083
-0.937229
-0.945126
-0.94802
-0.948073
-0.945563
-0.941034
-0.936312
-0.93119
-0.926534
-0.713444
-0.899594
-0.918638
-0.928972
-0.935921
-0.935519
-0.929143
-0.920222
-0.908732
-0.8956
-0.88428
-0.876114
-0.8706
-0.867402
-0.8662
-0.866041
-0.866003
-0.865947
-0.865812
-0.865506
-0.86494
-0.864172
-0.863313
-0.862439
-0.861586
-0.86069
-0.859696
-0.858916
-0.85919
-0.860692
-0.859948
-0.850625
-0.827011
-0.782518
-0.764602
-0.802474
-0.843008
-0.874779
-0.891482
-0.899091
-0.900418
-0.898191
-0.891693
-0.880887
-0.869115
-0.861571
-0.859035
-0.862177
-0.882076
-0.919695
-0.929262
-0.937049
-0.939925
-0.934275
-0.919956
-0.905519
-0.895264
-0.88619
-0.879025
-0.874361
-0.871734
-0.870697
-0.870805
-0.871953
-0.874154
-0.876611
-0.878452
-0.87938
-0.879454
-0.879011
-0.87831
-0.877523
-0.876755
-0.876001
-0.875215
-0.874448
-0.874325
-0.87622
-0.881186
-0.881732
-0.873734
-0.853906
-0.829653
-0.830196
-0.840808
-0.826588
-0.800068
-0.775737
-0.753693
-0.733415
-0.712967
-0.698168
-0.699637
-0.717312
-0.740312
-0.763513
-0.910343
-0.925689
-0.932489
-0.938192
-0.936139
-0.920994
-0.908326
-0.897307
-0.890024
-0.885113
-0.881912
-0.880108
-0.879219
-0.878836
-0.878589
-0.878669
-0.879385
-0.88031
-0.881164
-0.881896
-0.882357
-0.882556
-0.882604
-0.882515
-0.882354
-0.882128
-0.881803
-0.881409
-0.880979
-0.881447
-0.885642
-0.892855
-0.89596
-0.889424
-0.863387
-0.831833
-0.810565
-0.76317
-0.69345
-0.618422
-0.55384
-0.513138
-0.50281
-0.531819
-0.593313
-0.659496
-0.710055
-0.743514
-0.915889
-0.925386
-0.927325
-0.928292
-0.925006
-0.91259
-0.90174
-0.894039
-0.89002
-0.888251
-0.887475
-0.887298
-0.887355
-0.887408
-0.88715
-0.88672
-0.886262
-0.885718
-0.885163
-0.884653
-0.884103
-0.883569
-0.882843
-0.882036
-0.881206
-0.880427
-0.879749
-0.879169
-0.878464
-0.877561
-0.877649
-0.884071
-0.892443
-0.896153
-0.880661
-0.845407
-0.80354
-0.743967
-0.664299
-0.576728
-0.512067
-0.496695
-0.533662
-0.601691
-0.677264
-0.736752
-0.775925
-0.798671
-0.913983
-0.916389
-0.920962
-0.922371
-0.915572
-0.902718
-0.893712
-0.889464
-0.888451
-0.889005
-0.890114
-0.891335
-0.892431
-0.893292
-0.893414
-0.893117
-0.892635
-0.891978
-0.891177
-0.890208
-0.889008
-0.887783
-0.886465
-0.885153
-0.88392
-0.88257
-0.881289
-0.880172
-0.879144
-0.87786
-0.875728
-0.875984
-0.882597
-0.889624
-0.887964
-0.873255
-0.843072
-0.798584
-0.747255
-0.700965
-0.679197
-0.690775
-0.727508
-0.771462
-0.809196
-0.835001
-0.850597
-0.85907
-0.903675
-0.90724
-0.908984
-0.905575
-0.894781
-0.883758
-0.87927
-0.879215
-0.881317
-0.884005
-0.88664
-0.888987
-0.890958
-0.892533
-0.893671
-0.894461
-0.894956
-0.895174
-0.89515
-0.894756
-0.893783
-0.892694
-0.891513
-0.890293
-0.889083
-0.887721
-0.886277
-0.884974
-0.883773
-0.882579
-0.880734
-0.877829
-0.877409
-0.883178
-0.888053
-0.891027
-0.883461
-0.867361
-0.847767
-0.832645
-0.829221
-0.835937
-0.849952
-0.86708
-0.879139
-0.885517
-0.886541
-0.886126
-0.878334
-0.88254
-0.87334
-0.854176
-0.838888
-0.837766
-0.843228
-0.850057
-0.857145
-0.863561
-0.869186
-0.874058
-0.878238
-0.881785
-0.884771
-0.887432
-0.889578
-0.891225
-0.892419
-0.893198
-0.8936
-0.893735
-0.893632
-0.893328
-0.892868
-0.892074
-0.890815
-0.889583
-0.888408
-0.887388
-0.886316
-0.884325
-0.880745
-0.879547
-0.88623
-0.89134
-0.89544
-0.895783
-0.892368
-0.888593
-0.88754
-0.888278
-0.889616
-0.891655
-0.893082
-0.892979
-0.889863
-0.886282
-0.835247
-0.813401
-0.768639
-0.703538
-0.681268
-0.71099
-0.740631
-0.76385
-0.782669
-0.798465
-0.812052
-0.823929
-0.834417
-0.843707
-0.851963
-0.859692
-0.866362
-0.872016
-0.87672
-0.88055
-0.883599
-0.885959
-0.887936
-0.889372
-0.8903
-0.890795
-0.89094
-0.890848
-0.89056
-0.890205
-0.889838
-0.889187
-0.886933
-0.881908
-0.88441
-0.887993
-0.889714
-0.890998
-0.891266
-0.890563
-0.889693
-0.889064
-0.888079
-0.886534
-0.885523
-0.883478
-0.879706
-0.87501
-0.726369
-0.611839
-0.485336
-0.354588
-0.33254
-0.401464
-0.465895
-0.517715
-0.561125
-0.599198
-0.633379
-0.664463
-0.692934
-0.719004
-0.742725
-0.764288
-0.783648
-0.800874
-0.81604
-0.829243
-0.84061
-0.85031
-0.859064
-0.866352
-0.872219
-0.876832
-0.88036
-0.882959
-0.884724
-0.885832
-0.886707
-0.887306
-0.887131
-0.884482
-0.8825
-0.885863
-0.887192
-0.885853
-0.88433
-0.883527
-0.883523
-0.883164
-0.88215
-0.880322
-0.878083
-0.874887
-0.871787
-0.867145
-0.405773
-0.223071
-0.126372
-0.0680098
-0.0621978
-0.0907278
-0.122507
-0.153593
-0.184875
-0.217448
-0.251876
-0.288501
-0.32755
-0.368927
-0.412138
-0.456525
-0.501447
-0.546002
-0.58916
-0.629924
-0.667458
-0.701332
-0.73147
-0.757785
-0.780437
-0.799673
-0.815829
-0.829357
-0.840482
-0.849546
-0.857535
-0.864152
-0.869371
-0.872802
-0.873866
-0.875815
-0.878388
-0.878789
-0.87881
-0.878812
-0.878825
-0.878369
-0.877468
-0.876517
-0.87513
-0.872802
-0.871764
-0.869325
-0.0665436
-0.0206334
-0.00982298
-0.00505212
-0.00454843
-0.00736522
-0.0106906
-0.0142183
-0.0180977
-0.0225347
-0.0277213
-0.0338808
-0.0413044
-0.0503262
-0.061314
-0.0747087
-0.0910873
-0.111077
-0.135298
-0.164292
-0.19837
-0.237661
-0.281778
-0.330115
-0.381531
-0.434294
-0.486509
-0.536809
-0.583261
-0.624857
-0.661829
-0.693632
-0.720523
-0.743604
-0.760853
-0.773648
-0.785554
-0.796434
-0.805048
-0.811361
-0.816603
-0.819987
-0.820955
-0.81935
-0.816024
-0.815002
-0.817244
-0.820516
-0.0018892
-0.000428656
-0.000196504
-9.64537e-05
-9.70821e-05
-0.000167124
-0.000249904
-0.000338786
-0.000438135
-0.000553736
-0.00069129
-0.000857772
-0.00106276
-0.00131806
-0.00163818
-0.0020424
-0.00255794
-0.00322053
-0.00407616
-0.00518409
-0.00661827
-0.00847761
-0.0108823
-0.0139989
-0.0180372
-0.0232376
-0.0298794
-0.0383576
-0.0489094
-0.0617892
-0.0773915
-0.095606
-0.116203
-0.140082
-0.164809
-0.187407
-0.211476
-0.235696
-0.259099
-0.281224
-0.301314
-0.316287
-0.324318
-0.319768
-0.305861
-0.304773
-0.319151
-0.35474
-0.0297518
-0.00774055
-0.00390668
-0.00278762
-0.0023186
-0.00209222
-0.0020029
-0.00203791
-0.00218505
-0.00245946
-0.00294023
-0.00392422
-0.007366
-0.0130137
-0.00387608
-2.32971e-05
-5.85824e-05
-0.000149297
-0.000530137
-0.00116489
-0.00217871
-0.00386864
-0.00673434
-0.0115917
-0.0196154
-0.0324983
-0.0533646
-0.0910345
-0.16806
-0.373843
-0.266268
-0.196102
-0.125183
-0.0940907
-0.0793708
-0.0719681
-0.0688317
-0.0695183
-0.0735332
-0.0811715
-0.0944496
-0.120699
-0.190723
-0.271027
-0.124547
-0.000777602
-0.000185016
-0.00724494
-0.0198103
-0.0387339
-0.0660412
-0.105627
-0.161024
-0.249138
-0.339122
-0.432235
-0.521914
-0.604149
-0.669774
-0.707399
-0.549059
-0.601845
-0.531176
-0.466071
-0.415073
-0.392065
-0.381526
-0.382949
-0.394632
-0.416234
-0.450825
-0.508849
-0.605155
-0.670383
-0.517981
-0.067689
-0.00621932
-0.0892526
-0.174433
-0.270415
-0.370515
-0.469466
-0.559846
-0.645822
-0.704863
-0.748088
-0.779293
-0.799438
-0.804185
-0.766445
-0.694695
-0.780088
-0.770305
-0.745453
-0.720258
-0.706281
-0.699548
-0.700099
-0.707084
-0.719843
-0.739343
-0.769231
-0.807262
-0.825765
-0.7661
-0.463075
-0.190159
-0.380191
-0.504584
-0.601549
-0.675257
-0.730718
-0.771467
-0.803705
-0.823945
-0.837074
-0.84451
-0.84474
-0.828623
-0.714678
-0.760833
-0.84367
-0.85567
-0.85157
-0.843872
-0.83886
-0.836489
-0.836697
-0.839376
-0.844354
-0.85217
-0.864629
-0.877882
-0.879055
-0.852325
-0.776457
-0.628081
-0.665676
-0.722765
-0.766839
-0.799294
-0.822512
-0.838481
-0.849724
-0.855548
-0.857152
-0.854166
-0.843039
-0.802693
-0.527215
-0.792338
-0.868998
-0.888618
-0.892737
-0.89209
-0.891079
-0.890733
-0.891012
-0.892082
-0.894005
-0.897157
-0.902266
-0.906456
-0.900699
-0.884503
-0.875943
-0.824634
-0.789385
-0.805193
-0.82327
-0.838049
-0.848208
-0.853956
-0.855848
-0.853392
-0.846751
-0.834304
-0.808289
-0.730988
-0.213548
-0.806151
-0.878869
-0.901635
-0.909448
-0.911942
-0.912841
-0.913532
-0.913978
-0.914491
-0.915244
-0.916604
-0.918905
-0.919957
-0.911096
-0.897169
-0.908241
-0.889836
-0.840536
-0.834928
-0.839674
-0.845043
-0.847639
-0.846343
-0.840909
-0.830746
-0.815287
-0.790613
-0.741462
-0.638451
-0.0146499
-0.806858
-0.883137
-0.906316
-0.916288
-0.920379
-0.92227
-0.923616
-0.924297
-0.924715
-0.925148
-0.926151
-0.927887
-0.928108
-0.918112
-0.902077
-0.919548
-0.915274
-0.871909
-0.851441
-0.844491
-0.84154
-0.836945
-0.828678
-0.815863
-0.797791
-0.773185
-0.733194
-0.664863
-0.567461
-0.00222731
-0.792295
-0.878799
-0.909132
-0.921095
-0.925206
-0.927238
-0.929096
-0.930165
-0.930824
-0.93158
-0.933686
-0.936659
-0.936638
-0.927807
-0.904339
-0.923956
-0.92603
-0.89432
-0.867899
-0.850014
-0.838518
-0.826812
-0.812035
-0.792762
-0.767862
-0.735154
-0.683014
-0.61818
-0.537527
-4.33784e-06
-0.751713
-0.859679
-0.901073
-0.919503
-0.928502
-0.933669
-0.937139
-0.938932
-0.939768
-0.940039
-0.940113
-0.939422
-0.936102
-0.92992
-0.905967
-0.925966
-0.932571
-0.910103
-0.884504
-0.860869
-0.841231
-0.823631
-0.803699
-0.779653
-0.749954
-0.711639
-0.661274
-0.603935
-0.53718
-0.0301946
-0.656047
-0.813073
-0.874598
-0.903502
-0.918785
-0.928031
-0.933338
-0.936149
-0.937353
-0.937357
-0.936177
-0.932363
-0.923206
-0.920891
-0.903494
-0.925213
-0.93542
-0.921514
-0.899233
-0.875122
-0.850714
-0.828419
-0.805108
-0.77812
-0.745772
-0.704937
-0.660575
-0.605108
-0.549421
-0.132179
-0.447124
-0.699057
-0.805069
-0.856823
-0.885141
-0.902547
-0.911467
-0.916417
-0.918491
-0.918104
-0.914732
-0.904341
-0.878434
-0.885805
-0.890715
-0.920643
-0.934347
-0.928997
-0.910518
-0.888647
-0.864462
-0.839151
-0.813739
-0.785213
-0.751816
-0.711108
-0.668895
-0.615195
-0.565942
-0.256335
-0.14093
-0.435381
-0.614214
-0.719301
-0.78059
-0.815208
-0.834683
-0.845588
-0.849871
-0.847946
-0.837599
-0.806187
-0.721895
-0.759023
-0.85854
-0.90969
-0.928934
-0.930503
-0.918368
-0.899545
-0.877839
-0.852768
-0.826022
-0.796736
-0.763084
-0.724081
-0.681764
-0.628912
-0.58114
-0.350184
-0.00126846
-0.102765
-0.231468
-0.357485
-0.45628
-0.517912
-0.560456
-0.58564
-0.594791
-0.58733
-0.556778
-0.473873
-0.291545
-0.362644
-0.783278
-0.886411
-0.915974
-0.922255
-0.919256
-0.905568
-0.886723
-0.864081
-0.837411
-0.807713
-0.773718
-0.735083
-0.691058
-0.637724
-0.587435
-0.395219
-0.0261352
-0.000407841
-0.0106548
-0.0311589
-0.0532447
-0.0744636
-0.0927902
-0.105259
-0.109607
-0.104476
-0.0879491
-0.0538692
-0.0098774
-0.0236845
-0.621973
-0.839055
-0.88928
-0.90195
-0.906468
-0.90149
-0.88635
-0.86616
-0.840736
-0.810661
-0.77536
-0.734156
-0.686233
-0.629255
-0.572331
-0.382335
-0.0534117
-0.0128144
-0.00805807
-0.00502152
-0.00312836
-0.00184674
-0.00107003
-0.000669914
-0.00053648
-0.000597767
-0.000887556
-0.00206944
-0.00873567
-0.00215232
-0.377939
-0.744914
-0.836189
-0.859652
-0.86973
-0.873325
-0.866237
-0.848494
-0.823995
-0.792666
-0.753667