/*--------------------------------*- C++ -*----------------------------------*\
| =========                 |                                                 |
| \\      /  F ield         | OpenFOAM: The Open Source CFD Toolbox           |
|  \\    /   O peration     | Version:  2212                                  |
|   \\  /    A nd           | Website:  www.openfoam.com                      |
|    \\/     M anipulation  |                                                 |
\*---------------------------------------------------------------------------*/
FoamFile
{
    version     2.0;
    format      ascii;
    arch        "LSB;label=32;scalar=64";
    class       volSymmTensorField;
    location    "10000";
    object      turbulenceProperties:R;
}
// * * * * * * * * * * * * * * * * * * * * * * * * * * * * * * * * * * * * * //

dimensions      [0 2 -2 0 0 0 0];

internalField   nonuniform List<symmTensor> 
18080
(
(7.08232e-06 -4.87943e-16 9.02172e-08 7.86502e-06 -1.48822e-14 8.17684e-06)
(5.61694e-06 2.82632e-15 1.09422e-07 9.01372e-06 -1.56563e-15 8.54002e-06)
(3.41267e-06 -1.3359e-15 2.80271e-07 1.0679e-05 -4.93306e-13 9.23945e-06)
(2.42033e-06 -9.55477e-16 3.89779e-07 1.16091e-05 1.29767e-13 9.58539e-06)
(2.18116e-06 -1.16746e-15 4.30643e-07 1.20721e-05 5.30221e-14 9.75481e-06)
(2.03274e-06 1.70048e-16 4.57639e-07 1.25406e-05 3.97451e-14 9.94965e-06)
(1.94378e-06 -8.825e-16 4.75405e-07 1.30482e-05 -2.06925e-13 1.0181e-05)
(1.89766e-06 -1.0635e-15 4.87698e-07 1.36137e-05 -1.66993e-13 1.0461e-05)
(1.88389e-06 -2.71072e-16 4.97368e-07 1.42493e-05 -1.21249e-13 1.08027e-05)
(1.89473e-06 4.75395e-16 5.06681e-07 1.49648e-05 3.71364e-14 1.12193e-05)
(1.9227e-06 6.14459e-16 5.17688e-07 1.57699e-05 9.18951e-15 1.1725e-05)
(1.96399e-06 9.09736e-16 5.31961e-07 1.66706e-05 -1.84558e-14 1.23339e-05)
(2.01502e-06 4.47088e-16 5.50955e-07 1.76708e-05 -3.46701e-14 1.3061e-05)
(2.07229e-06 2.97948e-16 5.76001e-07 1.87723e-05 4.11437e-14 1.39225e-05)
(2.1324e-06 6.93913e-16 6.08277e-07 1.99733e-05 2.93817e-14 1.49356e-05)
(2.19218e-06 1.87947e-16 6.487e-07 2.12686e-05 1.33157e-14 1.6119e-05)
(2.24912e-06 1.29396e-16 6.97853e-07 2.26481e-05 8.15759e-15 1.74924e-05)
(2.30193e-06 3.80465e-16 7.559e-07 2.40973e-05 6.75011e-15 1.9076e-05)
(2.35141e-06 6.13802e-17 8.22578e-07 2.55966e-05 -5.6693e-14 2.08894e-05)
(2.40137e-06 -9.88923e-17 8.97266e-07 2.71233e-05 -5.18442e-14 2.29494e-05)
(2.45935e-06 -5.7587e-16 9.79165e-07 2.86532e-05 -9.9621e-14 2.52678e-05)
(2.53669e-06 -2.61461e-16 1.06762e-06 3.01643e-05 1.18517e-14 2.7848e-05)
(2.64742e-06 -1.48249e-16 1.16246e-06 3.16408e-05 8.93611e-16 3.06818e-05)
(2.80571e-06 1.16424e-16 1.26435e-06 3.3078e-05 4.40884e-14 3.3747e-05)
(3.02217e-06 1.19145e-16 1.375e-06 3.44849e-05 3.48203e-14 3.70063e-05)
(3.29981e-06 -8.24432e-17 1.49701e-06 3.58862e-05 2.63632e-14 4.04076e-05)
(3.63133e-06 -1.07217e-16 1.63347e-06 3.73186e-05 2.3265e-14 4.38878e-05)
(3.99859e-06 -2.87695e-16 1.78694e-06 3.8827e-05 1.85203e-14 4.73753e-05)
(4.3731e-06 -2.97124e-16 1.95913e-06 4.04674e-05 1.79e-14 5.07873e-05)
(4.72621e-06 -3.97278e-16 2.15073e-06 4.22715e-05 1.75663e-14 5.40516e-05)
(5.03194e-06 -2.78615e-16 2.35969e-06 4.42605e-05 3.5088e-14 5.7097e-05)
(5.27042e-06 -4.14374e-16 2.58344e-06 4.64475e-05 3.08766e-14 5.98526e-05)
(5.43535e-06 -3.14365e-16 2.82025e-06 4.88177e-05 4.76899e-14 6.22638e-05)
(5.53531e-06 -2.86799e-16 3.06927e-06 5.13245e-05 4.65098e-14 6.42986e-05)
(5.58454e-06 -5.08539e-16 3.33328e-06 5.39266e-05 2.73351e-14 6.59306e-05)
(5.60961e-06 -5.09574e-16 3.62122e-06 5.65402e-05 2.83571e-14 6.7173e-05)
(5.63423e-06 -3.87403e-16 3.948e-06 5.91e-05 3.18447e-14 6.80437e-05)
(5.68248e-06 -8.1419e-16 4.33843e-06 6.15316e-05 3.86497e-14 6.85827e-05)
(5.77478e-06 -1.05455e-15 4.82652e-06 6.37731e-05 4.52497e-14 6.8837e-05)
(5.92966e-06 -1.21143e-15 5.45695e-06 6.57802e-05 5.38903e-14 6.88519e-05)
(6.1682e-06 -1.29202e-15 6.28462e-06 6.75254e-05 6.36538e-14 6.86644e-05)
(6.5202e-06 -2.1933e-15 7.37296e-06 6.8998e-05 4.83259e-14 6.82951e-05)
(7.03167e-06 -8.71891e-16 8.7889e-06 7.01994e-05 9.50157e-14 6.77418e-05)
(7.7725e-06 -1.03409e-15 1.05932e-05 7.11374e-05 1.46747e-13 6.69734e-05)
(8.84005e-06 -1.72692e-15 1.28216e-05 7.18112e-05 1.70484e-13 6.59373e-05)
(1.03491e-05 -1.7027e-15 1.54512e-05 7.22143e-05 1.9998e-13 6.45651e-05)
(1.24313e-05 -3.48527e-15 1.84038e-05 7.23678e-05 2.08153e-13 6.27412e-05)
(1.52005e-05 -1.78949e-15 2.15336e-05 7.22437e-05 2.46676e-13 6.04112e-05)
(6.97641e-06 -2.08962e-15 1.39143e-07 8.09857e-06 3.08745e-14 8.04978e-06)
(5.60496e-06 1.62595e-15 1.64485e-07 8.88774e-06 4.61022e-14 8.67716e-06)
(3.55712e-06 -6.87991e-16 3.69877e-07 1.00858e-05 -5.8926e-14 9.67461e-06)
(2.36716e-06 3.21501e-16 5.27592e-07 1.08766e-05 7.84347e-15 1.03445e-05)
(2.10128e-06 2.32842e-17 5.81661e-07 1.12163e-05 5.41586e-14 1.06448e-05)
(1.92534e-06 5.98399e-16 6.23824e-07 1.1568e-05 3.0835e-14 1.0957e-05)
(1.80657e-06 -1.54385e-15 6.5824e-07 1.19537e-05 -9.89033e-15 1.13035e-05)
(1.72787e-06 -1.47141e-15 6.88261e-07 1.23874e-05 -1.73965e-14 1.1699e-05)
(1.67913e-06 -1.02195e-15 7.164e-07 1.28804e-05 -3.90337e-14 1.21554e-05)
(1.65401e-06 4.48259e-16 7.44653e-07 1.34419e-05 -1.0641e-14 1.26825e-05)
(1.64687e-06 4.19491e-16 7.74994e-07 1.40824e-05 -1.14522e-14 1.32908e-05)
(1.65474e-06 -1.42872e-16 8.0909e-07 1.48111e-05 -3.40959e-14 1.39901e-05)
(1.67663e-06 -8.23632e-16 8.48326e-07 1.56369e-05 -3.47462e-14 1.47896e-05)
(1.712e-06 -2.10526e-17 8.93932e-07 1.65686e-05 -7.4894e-15 1.56989e-05)
(1.76062e-06 -3.05867e-16 9.46896e-07 1.76152e-05 -2.21796e-14 1.67273e-05)
(1.82245e-06 -4.8356e-16 1.00783e-06 1.87855e-05 -9.06177e-15 1.78844e-05)
(1.8976e-06 -3.39117e-16 1.07692e-06 2.00887e-05 -8.03522e-15 1.91794e-05)
(1.98626e-06 -1.47083e-16 1.15394e-06 2.15335e-05 -9.75747e-15 2.06211e-05)
(2.0886e-06 -7.10499e-16 1.23836e-06 2.3128e-05 -1.5732e-14 2.22168e-05)
(2.20484e-06 -6.53425e-16 1.32959e-06 2.48794e-05 -8.72319e-15 2.39723e-05)
(2.3351e-06 -1.02168e-15 1.42732e-06 2.67935e-05 -1.34286e-14 2.58905e-05)
(2.47945e-06 -7.49142e-17 1.53187e-06 2.88736e-05 4.35007e-15 2.79709e-05)
(2.63784e-06 -5.49574e-17 1.64445e-06 3.112e-05 5.92236e-16 3.02086e-05)
(2.81001e-06 2.57494e-16 1.76732e-06 3.35284e-05 2.88296e-15 3.25932e-05)
(2.99543e-06 1.56989e-16 1.90358e-06 3.60895e-05 2.35907e-15 3.51083e-05)
(3.19324e-06 1.34243e-16 2.0568e-06 3.87874e-05 5.252e-15 3.77306e-05)
(3.40214e-06 1.00702e-16 2.23038e-06 4.15991e-05 4.89163e-15 4.04304e-05)
(3.62032e-06 1.07256e-16 2.42645e-06 4.44946e-05 7.79626e-15 4.31724e-05)
(3.84554e-06 1.7312e-16 2.64566e-06 4.74375e-05 8.34087e-15 4.59156e-05)
(4.07516e-06 1.11255e-16 2.88736e-06 5.03834e-05 7.37615e-15 4.86177e-05)
(4.3061e-06 2.88865e-16 3.14828e-06 5.32847e-05 9.66043e-15 5.12356e-05)
(4.53536e-06 2.48323e-16 3.42522e-06 5.60929e-05 9.15049e-15 5.3728e-05)
(4.76045e-06 4.31916e-16 3.71721e-06 5.87603e-05 1.14919e-14 5.60579e-05)
(4.97968e-06 4.20357e-16 4.02606e-06 6.12439e-05 1.15333e-14 5.8195e-05)
(5.19289e-06 1.19337e-16 4.35897e-06 6.35087e-05 8.61431e-15 6.01146e-05)
(5.40238e-06 8.48942e-17 4.73135e-06 6.55291e-05 8.9197e-15 6.18e-05)
(5.61331e-06 1.35021e-16 5.16613e-06 6.72902e-05 1.03946e-14 6.324e-05)
(5.83547e-06 2.64797e-16 5.69774e-06 6.87886e-05 1.38484e-14 6.44281e-05)
(6.0848e-06 3.92327e-16 6.37137e-06 7.00304e-05 1.76096e-14 6.53601e-05)
(6.3865e-06 6.07863e-16 7.24432e-06 7.10299e-05 2.09009e-14 6.60301e-05)
(6.77962e-06 9.20979e-16 8.38507e-06 7.18067e-05 2.42052e-14 6.64245e-05)
(7.32375e-06 4.85503e-16 9.86935e-06 7.23827e-05 2.19801e-14 6.65147e-05)
(8.10713e-06 1.56726e-15 1.17701e-05 7.27785e-05 2.7197e-14 6.62482e-05)
(9.25385e-06 3.37837e-15 1.41385e-05 7.30098e-05 3.58853e-14 6.55408e-05)
(1.09219e-05 4.85247e-15 1.69706e-05 7.3088e-05 4.2611e-14 6.42772e-05)
(1.32729e-05 6.65928e-15 2.01593e-05 7.30192e-05 4.98671e-14 6.23405e-05)
(1.64462e-05 7.72295e-15 2.35065e-05 7.27921e-05 5.55856e-14 5.96376e-05)
(2.04742e-05 1.06305e-14 2.67156e-05 7.23627e-05 6.48963e-14 5.62092e-05)
(7.01565e-06 9.42737e-16 1.73293e-07 8.05928e-06 1.21735e-14 8.04879e-06)
(5.67042e-06 7.97673e-16 1.67805e-07 8.78807e-06 -8.76988e-15 8.70711e-06)
(3.66977e-06 -6.34413e-16 3.15604e-07 9.90263e-06 -2.57269e-14 9.73349e-06)
(2.36681e-06 -6.10143e-16 4.34913e-07 1.07195e-05 -1.63052e-14 1.04853e-05)
(2.093e-06 5.92084e-16 4.74218e-07 1.10506e-05 1.18626e-14 1.07964e-05)
(1.91201e-06 4.09547e-16 5.13042e-07 1.13898e-05 8.01162e-15 1.11197e-05)
(1.78992e-06 1.05403e-16 5.51264e-07 1.17606e-05 5.47849e-15 1.14771e-05)
(1.7091e-06 6.08888e-17 5.89455e-07 1.21782e-05 1.02826e-14 1.18832e-05)
(1.65909e-06 -2.38534e-16 6.28302e-07 1.26548e-05 -2.2659e-15 1.2349e-05)
(1.63338e-06 -1.53831e-16 6.68526e-07 1.32006e-05 -6.6834e-15 1.2884e-05)
(1.6262e-06 -1.90972e-16 7.11112e-07 1.38263e-05 -4.01191e-15 1.34981e-05)
(1.6344e-06 -7.65727e-16 7.56955e-07 1.45417e-05 -7.71278e-15 1.42007e-05)
(1.65687e-06 -6.31254e-16 8.06793e-07 1.53559e-05 -3.35121e-15 1.50003e-05)
(1.69298e-06 -2.92352e-16 8.61315e-07 1.6278e-05 1.26493e-15 1.59055e-05)
(1.74239e-06 -5.62114e-16 9.21129e-07 1.73167e-05 -3.63967e-16 1.69248e-05)
(1.80496e-06 -1.63346e-16 9.86693e-07 1.84809e-05 4.37906e-15 1.80666e-05)
(1.88071e-06 -8.74824e-17 1.0583e-06 1.9779e-05 4.3766e-15 1.93387e-05)
(1.9697e-06 -1.15782e-16 1.1361e-06 2.12184e-05 1.10203e-15 2.07484e-05)
(2.07203e-06 -7.22148e-17 1.22013e-06 2.28059e-05 2.00454e-15 2.23017e-05)
(2.18775e-06 6.41166e-17 1.31049e-06 2.45462e-05 3.84798e-15 2.4003e-05)
(2.31683e-06 1.71038e-17 1.40743e-06 2.64418e-05 3.01402e-15 2.58546e-05)
(2.45915e-06 1.66766e-16 1.5116e-06 2.84924e-05 4.85634e-15 2.78554e-05)
(2.6144e-06 8.48389e-17 1.62416e-06 3.06934e-05 2.62717e-15 3.00011e-05)
(2.78205e-06 7.13135e-18 1.7468e-06 3.3036e-05 1.45794e-15 3.2283e-05)
(2.96131e-06 1.40894e-17 1.88171e-06 3.55057e-05 1.46594e-15 3.46875e-05)
(3.15107e-06 7.70165e-17 2.03125e-06 3.80828e-05 2.34865e-15 3.71959e-05)
(3.34986e-06 9.40803e-17 2.19771e-06 4.07414e-05 2.52486e-15 3.97847e-05)
(3.55584e-06 1.63892e-16 2.38248e-06 4.34505e-05 3.30746e-15 4.24257e-05)
(3.76683e-06 9.24577e-17 2.58596e-06 4.61752e-05 2.0334e-15 4.50867e-05)
(3.98048e-06 1.1871e-16 2.80823e-06 4.88755e-05 2.72611e-15 4.7733e-05)
(4.19418e-06 1.02359e-16 3.04738e-06 5.15114e-05 2.72451e-15 5.03279e-05)
(4.40556e-06 9.88947e-17 3.30188e-06 5.40437e-05 2.76024e-15 5.28353e-05)
(4.61284e-06 9.81011e-17 3.57257e-06 5.64354e-05 2.86461e-15 5.522e-05)
(4.81509e-06 8.45266e-17 3.86284e-06 5.86535e-05 3.0343e-15 5.74497e-05)
(5.0127e-06 1.22751e-16 4.17999e-06 6.06737e-05 3.99881e-15 5.94959e-05)
(5.20817e-06 1.20657e-16 4.53883e-06 6.24767e-05 4.63934e-15 6.13346e-05)
(5.40637e-06 9.88721e-17 4.95936e-06 6.40534e-05 4.63303e-15 6.29475e-05)
(5.61601e-06 2.4217e-16 5.47137e-06 6.54018e-05 5.82014e-15 6.43209e-05)
(5.85086e-06 3.80825e-16 6.11317e-06 6.65274e-05 7.04663e-15 6.54449e-05)
(6.13228e-06 4.38208e-16 6.93318e-06 6.74424e-05 7.2536e-15 6.63103e-05)
(6.49299e-06 6.03478e-16 7.9897e-06 6.81632e-05 8.02504e-15 6.69042e-05)
(6.98231e-06 6.5408e-16 9.34835e-06 6.8709e-05 8.39592e-15 6.72031e-05)
(7.67275e-06 6.68983e-16 1.10749e-05 6.90987e-05 8.93898e-15 6.71651e-05)
(8.66636e-06 9.86764e-16 1.32213e-05 6.93484e-05 1.08165e-14 6.67224e-05)
(1.0096e-05 1.44114e-15 1.58015e-05 6.94672e-05 1.26686e-14 6.57807e-05)
(1.21075e-05 2.14292e-15 1.87528e-05 6.94556e-05 1.52811e-14 6.42371e-05)
(1.48454e-05 3.08736e-15 2.19376e-05 6.93065e-05 1.8431e-14 6.19902e-05)
(1.83734e-05 4.33706e-15 2.51116e-05 6.89998e-05 2.18945e-14 5.90273e-05)
(6.99776e-06 -3.65246e-16 2.14869e-07 8.06348e-06 2.43437e-15 8.06277e-06)
(5.658e-06 -4.21822e-16 1.87156e-07 8.77758e-06 3.32248e-17 8.73043e-06)
(3.66387e-06 -1.55423e-17 3.00802e-07 9.87176e-06 4.11726e-16 9.7701e-06)
(2.36204e-06 1.43238e-16 3.82523e-07 1.06751e-05 4.97487e-15 1.0533e-05)
(2.08694e-06 3.69433e-16 4.06651e-07 1.10018e-05 9.26725e-15 1.08479e-05)
(1.91469e-06 3.50081e-16 4.36665e-07 1.1332e-05 7.44955e-15 1.11682e-05)
(1.78696e-06 3.11047e-16 4.72119e-07 1.17017e-05 5.79245e-15 1.1529e-05)
(1.70053e-06 3.45178e-16 5.10559e-07 1.21189e-05 6.17571e-15 1.19374e-05)
(1.65027e-06 2.94846e-16 5.51007e-07 1.25926e-05 4.62716e-15 1.24019e-05)
(1.62444e-06 1.53669e-16 5.93939e-07 1.31351e-05 5.00556e-16 1.29348e-05)
(1.61725e-06 9.8783e-17 6.39709e-07 1.3757e-05 -1.19449e-15 1.35462e-05)
(1.62541e-06 1.53091e-16 6.88706e-07 1.44676e-05 2.25116e-15 1.42457e-05)
(1.64775e-06 1.73203e-16 7.41234e-07 1.52759e-05 2.64253e-15 1.5042e-05)
(1.68356e-06 1.51402e-16 7.97606e-07 1.61905e-05 3.32584e-15 1.59438e-05)
(1.73245e-06 2.72032e-16 8.58147e-07 1.72201e-05 4.77964e-15 1.696e-05)
(1.79427e-06 2.47605e-16 9.23133e-07 1.83731e-05 4.33385e-15 1.80992e-05)
(1.86902e-06 2.44214e-16 9.92827e-07 1.96578e-05 3.89393e-15 1.93697e-05)
(1.95678e-06 1.25415e-16 1.06746e-06 2.10815e-05 9.52382e-16 2.07792e-05)
(2.0577e-06 1.22916e-16 1.14728e-06 2.26508e-05 5.91402e-16 2.23346e-05)
(2.17186e-06 7.19627e-17 1.23256e-06 2.43707e-05 5.61061e-16 2.40408e-05)
(2.29931e-06 4.65344e-17 1.32367e-06 2.62438e-05 6.68361e-16 2.59009e-05)
(2.43993e-06 5.466e-17 1.42116e-06 2.82703e-05 4.32786e-16 2.79148e-05)
(2.59342e-06 9.6279e-18 1.52575e-06 3.04463e-05 -3.20541e-16 3.0079e-05)
(2.75922e-06 -2.05813e-17 1.6383e-06 3.27638e-05 -7.64598e-16 3.23853e-05)
(2.93646e-06 -5.42086e-17 1.75984e-06 3.52098e-05 -1.09463e-15 3.48205e-05)
(3.1239e-06 -5.25367e-17 1.89136e-06 3.77656e-05 -7.88821e-16 3.73659e-05)
(3.31994e-06 -5.3348e-17 2.03376e-06 4.04069e-05 -1.01333e-15 3.99968e-05)
(3.5226e-06 -3.98636e-17 2.18748e-06 4.31041e-05 -3.64324e-16 4.26835e-05)
(3.72957e-06 -6.71772e-17 2.35251e-06 4.58235e-05 -5.5294e-16 4.53915e-05)
(3.93843e-06 -3.99514e-17 2.52942e-06 4.85265e-05 2.94694e-17 4.80829e-05)
(4.14655e-06 -4.97062e-17 2.71752e-06 5.11736e-05 -1.18886e-17 5.07175e-05)
(4.35153e-06 -4.79346e-17 2.91681e-06 5.37259e-05 1.35135e-16 5.32556e-05)
(4.55146e-06 -4.57797e-17 3.12949e-06 5.61461e-05 3.01287e-16 5.5659e-05)
(4.74515e-06 -2.97746e-17 3.35955e-06 5.84009e-05 6.53828e-16 5.78932e-05)
(4.93237e-06 2.53491e-17 3.61331e-06 6.04643e-05 1.50306e-15 5.99288e-05)
(5.11466e-06 4.99426e-17 3.90315e-06 6.23163e-05 1.9261e-15 6.17427e-05)
(5.29522e-06 3.91914e-17 4.2445e-06 6.39461e-05 1.92332e-15 6.33188e-05)
(5.48029e-06 4.75735e-17 4.66102e-06 6.53505e-05 2.22694e-15 6.46476e-05)
(5.67983e-06 1.11766e-16 5.18332e-06 6.65346e-05 2.75603e-15 6.57251e-05)
(5.90937e-06 1.04973e-17 5.85121e-06 6.75103e-05 2.48913e-15 6.65497e-05)
(6.19275e-06 -1.57236e-17 6.71435e-06 6.82946e-05 2.53393e-15 6.71192e-05)
(6.56604e-06 6.11827e-17 7.83146e-06 6.89074e-05 3.15787e-15 6.74244e-05)
(7.0829e-06 7.06971e-17 9.26621e-06 6.93692e-05 3.68289e-15 6.74429e-05)
(7.82077e-06 1.77476e-16 1.10782e-05 6.96978e-05 4.68567e-15 6.71316e-05)
(8.88553e-06 7.31716e-17 1.33064e-05 6.99066e-05 5.09701e-15 6.64211e-05)
(1.04048e-05 2.97416e-16 1.59369e-05 7.00021e-05 6.33358e-15 6.52229e-05)
(1.25254e-05 5.00896e-16 1.89011e-05 6.99804e-05 7.77457e-15 6.34299e-05)
(1.53502e-05 8.64376e-16 2.20262e-05 6.98206e-05 9.51311e-15 6.09912e-05)
(7.00201e-06 7.33015e-16 2.75899e-07 8.065e-06 -1.48971e-15 8.05735e-06)
(5.67077e-06 1.7528e-16 2.415e-07 8.76821e-06 -1.93038e-15 8.7272e-06)
(3.69153e-06 6.83668e-17 3.53612e-07 9.84595e-06 -5.23351e-15 9.7672e-06)
(2.36939e-06 2.70414e-16 4.19261e-07 1.06529e-05 -8.88797e-15 1.05457e-05)
(2.0916e-06 2.24767e-16 4.2589e-07 1.09781e-05 -7.87046e-15 1.08634e-05)
(1.92191e-06 5.13735e-17 4.43043e-07 1.13043e-05 -4.99156e-15 1.11829e-05)
(1.79856e-06 -8.31187e-17 4.68601e-07 1.16688e-05 -4.40408e-15 1.15411e-05)
(1.70581e-06 -7.48651e-17 5.00486e-07 1.20861e-05 -2.31035e-15 1.19523e-05)
(1.64922e-06 6.50423e-17 5.36049e-07 1.25598e-05 -1.27265e-15 1.24198e-05)
(1.62252e-06 3.79233e-17 5.74757e-07 1.30992e-05 -1.34342e-15 1.29528e-05)
(1.61459e-06 -3.52787e-17 6.17133e-07 1.37174e-05 -2.48569e-15 1.3564e-05)
(1.62206e-06 -3.47459e-17 6.63287e-07 1.44239e-05 -1.25557e-15 1.42631e-05)
(1.64374e-06 -7.59129e-17 7.13282e-07 1.52274e-05 -9.52519e-16 1.50587e-05)
(1.67889e-06 1.28465e-17 7.67204e-07 1.61369e-05 -2.12078e-17 1.59595e-05)
(1.72712e-06 7.32922e-18 8.2518e-07 1.71608e-05 -5.05804e-17 1.69741e-05)
(1.78824e-06 -2.82006e-17 8.87311e-07 1.83079e-05 -5.21592e-16 1.8111e-05)
(1.86225e-06 -4.5651e-17 9.53724e-07 1.95863e-05 -3.83548e-16 1.93783e-05)
(1.9492e-06 -6.46536e-17 1.02454e-06 2.10035e-05 -6.26054e-16 2.07835e-05)
(2.04922e-06 -8.49268e-17 1.0999e-06 2.25661e-05 -1.3452e-15 2.23329e-05)
(2.16237e-06 -1.17666e-16 1.17998e-06 2.42791e-05 -1.51504e-15 2.40313e-05)
(2.28867e-06 -7.93966e-17 1.26499e-06 2.61452e-05 -6.13536e-16 2.58811e-05)
(2.42795e-06 -8.72292e-17 1.35519e-06 2.81645e-05 -8.41839e-16 2.78822e-05)
(2.57985e-06 -9.59313e-17 1.45091e-06 3.03332e-05 -8.36386e-16 3.00303e-05)
(2.74373e-06 -9.78305e-17 1.55248e-06 3.2643e-05 -5.88617e-16 3.2317e-05)
(2.91863e-06 -8.47053e-17 1.66022e-06 3.50807e-05 -3.32663e-16 3.47291e-05)
(3.1032e-06 -7.25055e-17 1.77434e-06 3.76276e-05 -1.71813e-16 3.72476e-05)
(3.29576e-06 -7.07933e-17 1.895e-06 4.02591e-05 -2.89408e-16 3.98485e-05)
(3.49423e-06 -5.53618e-17 2.02202e-06 4.29456e-05 -1.29316e-16 4.25024e-05)
(3.69627e-06 -3.74587e-17 2.15493e-06 4.56532e-05 2.24964e-16 4.51761e-05)
(3.89941e-06 -4.44747e-17 2.2942e-06 4.83435e-05 3.22528e-16 4.78326e-05)
(4.10105e-06 -2.13842e-17 2.43915e-06 5.09772e-05 5.07999e-16 5.04336e-05)
(4.29875e-06 -1.50584e-17 2.58986e-06 5.35155e-05 6.97648e-16 5.29411e-05)
(4.49053e-06 -4.2413e-18 2.74835e-06 5.59215e-05 8.14895e-16 5.53186e-05)
(4.67502e-06 -3.76705e-18 2.91815e-06 5.81622e-05 8.47492e-16 5.75333e-05)
(4.85161e-06 -1.91841e-18 3.10417e-06 6.02117e-05 8.92697e-16 5.95578e-05)
(5.02116e-06 -5.15903e-18 3.31698e-06 6.20499e-05 9.75343e-16 6.13701e-05)
(5.18584e-06 2.0367e-17 3.56916e-06 6.3666e-05 1.13873e-15 6.2956e-05)
(5.35019e-06 3.05917e-17 3.88102e-06 6.50568e-05 1.32021e-15 6.43074e-05)
(5.52164e-06 5.66462e-17 4.27929e-06 6.62271e-05 1.66824e-15 6.54222e-05)
(5.71189e-06 7.41938e-17 4.79975e-06 6.71886e-05 1.889e-15 6.63022e-05)
(5.93901e-06 8.03845e-17 5.48846e-06 6.79585e-05 2.00322e-15 6.69497e-05)
(6.23065e-06 9.90474e-17 6.40194e-06 6.85568e-05 2.33206e-15 6.73625e-05)
(6.62869e-06 2.14525e-16 7.60474e-06 6.90049e-05 3.07042e-15 6.75283e-05)
(7.19517e-06 2.62248e-16 9.16299e-06 6.93221e-05 3.59417e-15 6.74165e-05)
(8.01864e-06 2.59932e-16 1.11321e-05 6.95235e-05 3.78007e-15 6.69718e-05)
(9.21376e-06 3.87464e-16 1.35297e-05 6.96174e-05 4.30255e-15 6.61152e-05)
(1.09245e-05 4.44939e-16 1.63301e-05 6.96036e-05 5.22938e-15 6.47384e-05)
(1.32622e-05 6.93673e-16 1.93961e-05 6.94811e-05 6.32195e-15 6.27624e-05)
(6.99474e-06 -3.07855e-16 3.60907e-07 8.06459e-06 -1.53726e-15 8.06603e-06)
(5.66813e-06 -6.00559e-16 3.21954e-07 8.76423e-06 -1.90096e-15 8.73563e-06)
(3.69586e-06 -5.99515e-16 4.48988e-07 9.83465e-06 -1.60351e-15 9.7765e-06)
(2.37974e-06 -1.77332e-16 5.05697e-07 1.06364e-05 -3.94915e-16 1.05541e-05)
(2.10069e-06 1.73812e-17 4.93956e-07 1.09619e-05 -4.49714e-15 1.08721e-05)
(1.93071e-06 -1.07864e-16 4.97321e-07 1.12874e-05 -5.26875e-15 1.11914e-05)
(1.80575e-06 -1.60497e-16 5.12337e-07 1.16516e-05 -4.18389e-15 1.155e-05)
(1.72101e-06 1.09898e-17 5.34762e-07 1.2063e-05 -1.27668e-15 1.19561e-05)
(1.6527e-06 2.56622e-17 5.64467e-07 1.25408e-05 -1.38746e-15 1.24288e-05)
(1.62522e-06 -4.40713e-17 5.97428e-07 1.30786e-05 -1.69682e-15 1.29612e-05)
(1.61661e-06 -4.07279e-17 6.3502e-07 1.36948e-05 -1.464e-15 1.35715e-05)
(1.62346e-06 -6.4458e-17 6.77156e-07 1.43989e-05 -1.26387e-15 1.42693e-05)
(1.64455e-06 -1.64363e-17 7.23722e-07 1.51996e-05 1.2514e-16 1.50632e-05)
(1.67913e-06 6.57619e-18 7.74634e-07 1.61057e-05 1.39161e-16 1.59619e-05)
(1.72679e-06 -2.96131e-17 8.29851e-07 1.71258e-05 -1.23869e-16 1.69739e-05)
(1.78731e-06 -4.11754e-17 8.89315e-07 1.82683e-05 -1.53966e-17 1.81079e-05)
(1.86067e-06 -1.43024e-17 9.52987e-07 1.95413e-05 1.55374e-16 1.93718e-05)
(1.94691e-06 8.5151e-18 1.02082e-06 2.09525e-05 5.48239e-16 2.07732e-05)
(2.04613e-06 -1.94444e-17 1.09276e-06 2.25081e-05 2.74776e-16 2.23185e-05)
(2.15838e-06 -2.35758e-18 1.16878e-06 2.42132e-05 7.19032e-16 2.40126e-05)
(2.28364e-06 4.67703e-18 1.2488e-06 2.60703e-05 7.75854e-16 2.58582e-05)
(2.42173e-06 2.00182e-17 1.33275e-06 2.80795e-05 1.06752e-15 2.78551e-05)
(2.57223e-06 2.44443e-17 1.42052e-06 3.02369e-05 1.04067e-15 2.99996e-05)
(2.73448e-06 3.75069e-17 1.5119e-06 3.25343e-05 1.23669e-15 3.22836e-05)
(2.90746e-06 4.24694e-17 1.60656e-06 3.49586e-05 1.39217e-15 3.46941e-05)
(3.08978e-06 5.34807e-17 1.70404e-06 3.74912e-05 1.52588e-15 3.72128e-05)
(3.27969e-06 5.08804e-17 1.80376e-06 4.01077e-05 1.47887e-15 3.98156e-05)
(3.47509e-06 4.26834e-17 1.9049e-06 4.27788e-05 1.2934e-15 4.24737e-05)
(3.67356e-06 4.15431e-17 2.00633e-06 4.54712e-05 1.24886e-15 4.51539e-05)
(3.87263e-06 3.9819e-17 2.10805e-06 4.81469e-05 1.19811e-15 4.78192e-05)
(4.06959e-06 4.64606e-17 2.20897e-06 5.0767e-05 1.2506e-15 5.0431e-05)
(4.26194e-06 3.81391e-17 2.30863e-06 5.32932e-05 1.15173e-15 5.2951e-05)
(4.44757e-06 3.95403e-17 2.40838e-06 5.56889e-05 1.108e-15 5.53424e-05)
(4.62487e-06 3.7627e-17 2.51089e-06 5.79214e-05 1.05288e-15 5.7572e-05)
(4.79285e-06 2.10348e-17 2.61951e-06 5.99649e-05 9.41938e-16 5.96122e-05)
(4.95179e-06 4.1003e-17 2.74305e-06 6.17992e-05 1.00092e-15 6.14412e-05)
(5.10298e-06 2.88846e-17 2.89152e-06 6.34135e-05 9.06554e-16 6.30451e-05)
(5.2496e-06 2.27762e-17 3.08235e-06 6.48045e-05 8.32449e-16 6.44168e-05)
(5.39693e-06 2.68639e-17 3.33899e-06 6.5977e-05 8.47535e-16 6.55563e-05)
(5.55343e-06 1.32974e-17 3.69385e-06 6.69431e-05 8.80702e-16 6.64679e-05)
(5.73219e-06 2.23119e-17 4.19006e-06 6.77202e-05 9.41937e-16 6.71585e-05)
(5.9534e-06 3.11755e-17 4.8824e-06 6.83295e-05 1.02951e-15 6.76324e-05)
(6.24825e-06 2.75001e-17 5.83643e-06 6.87938e-05 1.26171e-15 6.78863e-05)
(6.66446e-06 3.22003e-17 7.12395e-06 6.91347e-05 1.39298e-15 6.79022e-05)
(7.27327e-06 3.77743e-17 8.81396e-06 6.93701e-05 1.58512e-15 6.76393e-05)
(8.17325e-06 6.60062e-17 1.09497e-05 6.95113e-05 2.02002e-15 6.70311e-05)
(9.49753e-06 5.12132e-17 1.35416e-05 6.95624e-05 2.48277e-15 6.59762e-05)
(1.13605e-05 1.2456e-16 1.64884e-05 6.95301e-05 3.18223e-15 6.4385e-05)
(6.98526e-06 6.91353e-19 4.69228e-07 8.06657e-06 2.36992e-17 8.07518e-06)
(5.66505e-06 -1.1876e-16 4.27592e-07 8.76488e-06 1.62149e-15 8.74114e-06)
(3.70099e-06 1.14728e-16 5.81893e-07 9.83037e-06 4.47441e-15 9.78005e-06)
(2.39791e-06 2.91134e-16 6.34596e-07 1.06247e-05 4.2517e-15 1.05524e-05)
(2.11608e-06 6.7447e-17 6.03224e-07 1.09515e-05 2.50037e-15 1.08718e-05)
(1.94355e-06 1.28654e-17 5.91829e-07 1.12778e-05 1.39784e-15 1.11925e-05)
(1.81651e-06 9.59795e-17 5.95481e-07 1.16423e-05 1.04479e-15 1.15519e-05)
(1.73207e-06 1.17828e-16 6.08548e-07 1.20525e-05 4.87487e-16 1.19575e-05)
(1.67386e-06 1.18345e-17 6.29567e-07 1.25233e-05 -6.17274e-16 1.24237e-05)
(1.63266e-06 -1.82204e-17 6.57713e-07 1.30665e-05 -3.73247e-16 1.29621e-05)
(1.62332e-06 2.1503e-18 6.9024e-07 1.36812e-05 -3.54938e-16 1.35718e-05)
(1.62952e-06 -9.21034e-18 7.2826e-07 1.43834e-05 -5.07376e-16 1.42686e-05)
(1.65003e-06 1.30225e-17 7.71497e-07 1.51818e-05 -4.44363e-17 1.50612e-05)
(1.68408e-06 -2.41426e-18 8.19706e-07 1.60851e-05 -5.82762e-17 1.59582e-05)
(1.73123e-06 -1.81463e-17 8.72683e-07 1.71018e-05 5.91264e-17 1.69683e-05)
(1.79124e-06 6.81905e-18 9.30193e-07 1.82404e-05 3.84049e-16 1.80999e-05)
(1.86407e-06 9.53222e-18 9.92007e-07 1.95091e-05 2.35663e-16 1.93611e-05)
(1.94974e-06 6.61457e-18 1.05786e-06 2.09153e-05 2.20021e-16 2.07593e-05)
(2.04831e-06 6.15611e-18 1.12747e-06 2.24655e-05 8.63161e-17 2.2301e-05)
(2.15981e-06 1.13544e-17 1.20051e-06 2.41645e-05 2.44881e-16 2.3991e-05)
(2.28419e-06 1.16802e-17 1.27656e-06 2.60151e-05 3.1407e-16 2.5832e-05)
(2.42122e-06 2.8104e-17 1.35516e-06 2.80173e-05 4.27319e-16 2.78238e-05)
(2.57046e-06 1.81714e-17 1.4357e-06 3.01673e-05 3.79908e-16 2.99627e-05)
(2.7312e-06 1.47203e-17 1.5174e-06 3.2457e-05 3.34114e-16 3.22407e-05)
(2.90236e-06 1.51717e-17 1.59931e-06 3.48734e-05 2.9009e-16 3.46448e-05)
(3.08252e-06 1.94032e-17 1.68025e-06 3.7398e-05 3.75963e-16 3.71567e-05)
(3.2699e-06 1.17613e-17 1.75897e-06 4.00069e-05 2.24105e-16 3.97526e-05)
(3.46236e-06 5.38754e-18 1.83396e-06 4.26708e-05 1.37352e-16 4.24037e-05)
(3.65747e-06 5.7313e-19 1.90341e-06 4.53568e-05 1.01075e-16 4.5077e-05)
(3.85271e-06 -2.67046e-18 1.96676e-06 4.80271e-05 7.23661e-17 4.77358e-05)
(4.0454e-06 -5.65243e-18 2.02231e-06 5.06431e-05 4.89235e-17 5.03415e-05)
(4.23299e-06 -1.46064e-17 2.06894e-06 5.31669e-05 -8.75834e-17 5.28564e-05)
(4.41332e-06 -1.59886e-17 2.10718e-06 5.5562e-05 -1.53415e-16 5.52438e-05)
(4.58466e-06 -2.66713e-17 2.13872e-06 5.77956e-05 -2.08099e-16 5.74708e-05)
(4.74586e-06 -2.1793e-17 2.16536e-06 5.9842e-05 -2.41513e-16 5.95103e-05)
(4.89685e-06 -3.31823e-17 2.19432e-06 6.16808e-05 -2.20227e-16 6.13409e-05)
(5.03838e-06 -2.35617e-17 2.23335e-06 6.33012e-05 -2.32707e-16 6.29494e-05)
(5.17275e-06 -3.0022e-17 2.2976e-06 6.46996e-05 -1.95197e-16 6.43297e-05)
(5.30381e-06 -1.44055e-17 2.40808e-06 6.58808e-05 -1.39086e-16 6.54827e-05)
(5.43769e-06 -5.42316e-17 2.59509e-06 6.68566e-05 -2.12117e-16 6.64152e-05)
(5.58378e-06 -5.33931e-17 2.9004e-06 6.7645e-05 -1.46134e-16 6.71369e-05)
(5.75656e-06 -6.66073e-17 3.37896e-06 6.82676e-05 -1.12516e-16 6.76572e-05)
(5.97894e-06 -9.28807e-17 4.09908e-06 6.87482e-05 -1.26773e-16 6.79797e-05)
(6.28728e-06 -1.27382e-16 5.13917e-06 6.91098e-05 -4.05198e-18 6.80959e-05)
(6.73897e-06 -8.40718e-17 6.5807e-06 6.93724e-05 3.68994e-16 6.79763e-05)
(7.41938e-06 -1.44365e-16 8.48871e-06 6.95491e-05 7.875e-16 6.75647e-05)
(8.45195e-06 -1.77778e-16 1.09011e-05 6.96461e-05 1.11547e-15 6.67666e-05)
(9.94819e-06 -2.68798e-16 1.37371e-05 6.96798e-05 1.51016e-15 6.54862e-05)
(6.97182e-06 2.41409e-17 6.06272e-07 8.07156e-06 4.84166e-16 8.08628e-06)
(5.65759e-06 -3.30468e-18 5.62633e-07 8.76994e-06 -9.45363e-17 8.74857e-06)
(3.69908e-06 -4.05931e-17 7.5642e-07 9.83353e-06 8.45031e-16 9.78669e-06)
(2.42661e-06 4.08991e-17 8.06148e-07 1.06128e-05 2.08644e-16 1.05447e-05)
(2.14024e-06 1.27497e-16 7.53338e-07 1.09425e-05 -3.2169e-16 1.08665e-05)
(1.96399e-06 6.51252e-17 7.25791e-07 1.12709e-05 4.01317e-17 1.11892e-05)
(1.83444e-06 2.78351e-17 7.17078e-07 1.16366e-05 -9.31247e-17 1.15499e-05)
(1.74802e-06 -3.39893e-18 7.20256e-07 1.20475e-05 -5.74432e-16 1.19563e-05)
(1.69398e-06 -2.6233e-17 7.32627e-07 1.25153e-05 -9.06962e-16 1.24197e-05)
(1.65187e-06 -1.11033e-17 7.54379e-07 1.30577e-05 -5.38921e-16 1.29576e-05)
(1.63583e-06 -2.62794e-17 7.82404e-07 1.36746e-05 -5.30229e-16 1.35698e-05)
(1.64129e-06 -2.87005e-17 8.16404e-07 1.43757e-05 -4.26737e-16 1.42659e-05)
(1.66119e-06 -3.00518e-17 8.56606e-07 1.51726e-05 -5.81235e-16 1.50574e-05)
(1.69471e-06 -3.05888e-17 9.02598e-07 1.60739e-05 -5.49757e-16 1.59531e-05)
(1.74138e-06 -3.65607e-17 9.54008e-07 1.70882e-05 -4.83193e-16 1.69615e-05)
(1.80095e-06 -3.17329e-17 1.01041e-06 1.82239e-05 -2.2504e-16 1.8091e-05)
(1.87333e-06 -2.48538e-17 1.07136e-06 1.94893e-05 -1.81887e-16 1.93498e-05)
(1.95851e-06 -2.68632e-17 1.13636e-06 2.08917e-05 -1.7208e-16 2.07453e-05)
(2.05652e-06 -2.67411e-17 1.20483e-06 2.24375e-05 -1.01532e-16 2.2284e-05)
(2.16737e-06 -2.96859e-17 1.2761e-06 2.41317e-05 -2.30822e-16 2.39707e-05)
(2.29094e-06 -1.44078e-17 1.34938e-06 2.59771e-05 -5.89884e-17 2.58082e-05)
(2.42698e-06 -1.9845e-17 1.42374e-06 2.79735e-05 -1.77696e-16 2.77965e-05)
(2.57501e-06 -2.24923e-17 1.49802e-06 3.01173e-05 -1.68775e-16 2.9932e-05)
(2.73426e-06 -2.22009e-17 1.57085e-06 3.24004e-05 -1.59404e-16 3.22068e-05)
(2.90365e-06 -1.95448e-17 1.6406e-06 3.481e-05 -1.51172e-16 3.46082e-05)
(3.08172e-06 -2.75478e-17 1.70537e-06 3.73278e-05 -2.3688e-16 3.71181e-05)
(3.26667e-06 -2.68661e-17 1.76315e-06 3.99299e-05 -1.8097e-16 3.97131e-05)
(3.45634e-06 -2.8056e-17 1.81174e-06 4.25874e-05 -2.32098e-16 4.23645e-05)
(3.64834e-06 -2.67531e-17 1.84856e-06 4.52675e-05 -2.08969e-16 4.50397e-05)
(3.84017e-06 -2.53856e-17 1.87237e-06 4.79329e-05 -1.84533e-16 4.77019e-05)
(4.02915e-06 -2.66633e-17 1.88074e-06 5.05451e-05 -1.59739e-16 5.0313e-05)
(4.21279e-06 -2.40487e-17 1.87173e-06 5.30663e-05 -1.41505e-16 5.2835e-05)
(4.38892e-06 -1.8984e-17 1.84486e-06 5.54601e-05 -8.36976e-17 5.52314e-05)
(4.55584e-06 -2.46409e-17 1.80077e-06 5.76938e-05 -1.47625e-16 5.74692e-05)
(4.71235e-06 -2.32114e-17 1.73962e-06 5.97417e-05 -1.31793e-16 5.95212e-05)
(4.85825e-06 -2.34772e-17 1.66701e-06 6.15829e-05 -1.16326e-16 6.13661e-05)
(4.99411e-06 -8.90758e-18 1.58861e-06 6.32065e-05 8.93958e-19 6.29907e-05)
(5.12171e-06 -1.07587e-17 1.51751e-06 6.46087e-05 8.36235e-17 6.43892e-05)
(5.24403e-06 -1.94665e-17 1.47274e-06 6.57939e-05 1.58115e-16 6.55633e-05)
(5.36548e-06 -6.21849e-18 1.48299e-06 6.67742e-05 2.21247e-16 6.65209e-05)
(5.49249e-06 -3.39787e-18 1.58932e-06 6.75677e-05 3.5634e-16 6.72741e-05)
(5.63468e-06 2.65596e-17 1.84739e-06 6.81971e-05 5.46665e-16 6.78361e-05)
(5.80734e-06 2.04419e-17 2.32853e-06 6.86874e-05 7.65851e-16 6.82165e-05)
(6.03602e-06 3.48674e-17 3.11744e-06 6.90638e-05 1.00713e-15 6.84154e-05)
(6.3641e-06 7.35517e-17 4.3066e-06 6.93484e-05 1.45341e-15 6.84144e-05)
(6.86195e-06 1.22751e-16 5.97962e-06 6.95563e-05 1.89883e-15 6.81694e-05)
(7.63927e-06 1.97916e-16 8.19609e-06 6.96968e-05 2.38441e-15 6.75966e-05)
(8.80312e-06 2.62515e-16 1.08963e-05 6.97902e-05 2.92796e-15 6.6601e-05)
(6.9532e-06 1.13434e-16 7.8118e-07 8.07927e-06 -5.10143e-16 8.10135e-06)
(5.64618e-06 -1.49885e-16 7.3284e-07 8.77959e-06 -3.07433e-16 8.75824e-06)
(3.69161e-06 -2.13146e-17 9.78561e-07 9.84453e-06 -3.81042e-16 9.79589e-06)
(2.47162e-06 7.94623e-18 1.0221e-06 1.05993e-05 6.3315e-17 1.05283e-05)
(2.17807e-06 -1.71843e-17 9.45815e-07 1.09338e-05 -3.74765e-16 1.08541e-05)
(1.99623e-06 -1.72947e-17 9.00498e-07 1.12657e-05 -3.65695e-16 1.11801e-05)
(1.86286e-06 -2.18168e-17 8.78254e-07 1.16337e-05 -3.87906e-16 1.15431e-05)