/*--------------------------------*- C++ -*----------------------------------*\
| =========                 |                                                 |
| \\      /  F ield         | OpenFOAM: The Open Source CFD Toolbox           |
|  \\    /   O peration     | Version:  2212                                  |
|   \\  /    A nd           | Website:  www.openfoam.com                      |
|    \\/     M anipulation  |                                                 |
\*---------------------------------------------------------------------------*/
FoamFile
{
    version     2.0;
    format      ascii;
    arch        "LSB;label=32;scalar=64";
    class       volVectorField;
    location    "10000";
    object      U;
}
// * * * * * * * * * * * * * * * * * * * * * * * * * * * * * * * * * * * * * //

dimensions      [0 1 -1 0 0 0 0];

internalField   nonuniform List<vector> 
18080
(
(17.7346 3.70447e-11 -0.000257825)
(17.8291 5.70345e-11 -0.0022666)
(18.0003 -9.99083e-10 -0.00406717)
(18.2554 2.64357e-10 -0.00602166)
(18.6007 2.24677e-10 -0.00822278)
(19.0453 1.82968e-10 -0.010756)
(19.6006 -7.66105e-10 -0.0136682)
(20.2788 -7.2176e-10 -0.0169787)
(21.0932 -6.77465e-10 -0.020684)
(22.0577 1.53975e-10 -0.0247586)
(23.1874 3.8509e-12 -0.0291553)
(24.4987 -2.44141e-10 -0.0338044)
(26.0087 -3.61721e-10 -0.0386119)
(27.7358 2.8504e-10 -0.0434622)
(29.6997 1.50512e-10 -0.0482142)
(31.9208 9.3308e-11 -0.0527059)
(34.4202 5.69563e-11 -0.0567555)
(37.2189 1.87151e-11 -0.0601695)
(40.3379 -5.6639e-10 -0.0627542)
(43.7962 -4.91655e-10 -0.0643301)
(47.611 -9.58087e-10 -0.0647548)
(51.7954 1.60787e-10 -0.0639421)
(56.3578 2.56034e-11 -0.0618845)
(61.2999 4.40947e-10 -0.0586734)
(66.6151 3.5549e-10 -0.0545085)
(72.2872 3.08997e-10 -0.0497074)
(78.2884 2.79615e-10 -0.0446778)
(84.5783 2.67411e-10 -0.039897)
(91.1042 2.59538e-10 -0.035953)
(97.7995 2.54051e-10 -0.0332179)
(104.585 4.34461e-10 -0.0319837)
(111.373 3.81472e-10 -0.0324418)
(118.069 5.36247e-10 -0.0345011)
(124.572 5.03406e-10 -0.0377667)
(130.788 3.08699e-10 -0.041849)
(136.627 3.01933e-10 -0.0460145)
(142.012 3.10963e-10 -0.0496918)
(146.883 3.48783e-10 -0.0522982)
(151.201 3.73398e-10 -0.0534293)
(154.949 3.88184e-10 -0.05291)
(158.136 3.96785e-10 -0.050794)
(160.79 2.77796e-10 -0.0473366)
(162.957 4.11732e-10 -0.0429265)
(164.697 5.1839e-10 -0.0379995)
(166.074 5.05346e-10 -0.0329334)
(167.151 4.94579e-10 -0.0280335)
(167.988 4.33602e-10 -0.023578)
(168.635 4.27543e-10 -0.0195763)
(17.7341 3.31184e-10 -0.00302524)
(17.8282 2.67089e-10 -0.00680748)
(17.9986 -1.3165e-10 -0.0106877)
(18.253 -1.1394e-10 -0.0150645)
(18.5974 4.28372e-10 -0.0199465)
(19.0412 2.89015e-10 -0.0253942)
(19.5957 1.86454e-10 -0.0314379)
(20.2731 1.3563e-10 -0.0380948)
(21.0866 -3.63097e-10 -0.0453786)
(22.0503 -3.34657e-10 -0.0533052)
(23.1792 -3.18602e-10 -0.061896)
(24.4895 -7.10222e-10 -0.0711803)
(25.9985 -6.51076e-10 -0.0811955)
(27.7244 -2.04322e-10 -0.0919903)
(29.6868 -5.26534e-10 -0.103618)
(31.9062 -1.16143e-10 -0.116138)
(34.4035 -8.44608e-11 -0.129609)
(37.1999 -2.31657e-10 -0.144087)
(40.3161 -2.0477e-10 -0.159616)
(43.7714 3.91891e-12 -0.176221)
(47.5828 2.61228e-11 -0.193897)
(51.7636 1.95646e-10 -0.212591)
(56.3221 6.96047e-11 -0.232185)
(61.2601 -3.28714e-11 -0.25248)
(66.5709 -1.83029e-11 -0.273173)
(72.2385 1.12918e-10 -0.293853)
(78.235 1.08109e-10 -0.313979)
(84.5201 2.21871e-10 -0.332897)
(91.0415 2.10457e-10 -0.349918)
(97.7324 2.03619e-10 -0.364151)
(104.514 2.00159e-10 -0.374773)
(111.299 1.98519e-10 -0.381059)
(117.992 2.00466e-10 -0.382355)
(124.495 2.04117e-10 -0.378184)
(130.71 2.10099e-10 -0.368449)
(136.549 2.1793e-10 -0.353207)
(141.935 2.25396e-10 -0.332948)
(146.807 2.73583e-10 -0.308407)
(151.126 3.17918e-10 -0.280589)
(154.874 3.19353e-10 -0.2507)
(158.06 3.19355e-10 -0.220036)
(160.713 2.85026e-10 -0.189873)
(162.878 2.54379e-10 -0.161341)
(164.616 2.58414e-10 -0.135318)
(165.989 2.6132e-10 -0.112355)
(167.063 2.63862e-10 -0.0926886)
(167.898 2.65811e-10 -0.0762993)
(168.543 2.6727e-10 -0.0627086)
(17.7332 5.13518e-12 -0.00478826)
(17.827 -2.66438e-10 -0.0113845)
(17.9967 -2.07965e-10 -0.0182967)
(18.2503 -1.14255e-10 -0.0260442)
(18.5939 -5.33372e-11 -0.0346398)
(19.0368 -1.99222e-11 -0.0442107)
(19.5903 -3.13058e-12 -0.0548422)
(20.2666 2.04558e-10 -0.0665958)
(21.079 1.49223e-10 -0.079521)
(22.0415 -7.6849e-11 -0.0936612)
(23.1692 -8.79096e-11 -0.109058)
(24.478 9.01397e-11 -0.125753)
(25.9854 2.52822e-10 -0.143787)
(27.7095 2.43879e-10 -0.163201)
(29.6699 3.95118e-10 -0.184024)
(31.8869 3.81578e-10 -0.206271)
(34.3815 3.69989e-10 -0.229934)
(37.1749 2.06459e-10 -0.254968)
(40.2878 1.93601e-10 -0.281289)
(43.7395 1.84098e-10 -0.308753)
(47.547 1.77607e-10 -0.337156)
(51.7236 1.70609e-10 -0.366219)
(56.2776 9.8933e-11 -0.395574)
(61.2108 9.12438e-11 -0.424767)
(66.5168 8.41218e-11 -0.453247)
(72.1791 8.03364e-11 -0.480384)
(78.1704 7.57691e-11 -0.505456)
(84.4502 7.4537e-11 -0.527686)
(90.9664 2.32923e-11 -0.546387)
(97.6525 7.79049e-11 -0.56063)
(104.43 8.12006e-11 -0.56964)
(111.212 8.57924e-11 -0.572816)
(117.902 9.1645e-11 -0.569586)
(124.403 9.84979e-11 -0.559468)
(130.618 1.4585e-10 -0.542497)
(136.457 1.66224e-10 -0.51862)
(141.843 1.48744e-10 -0.488409)
(146.716 1.53161e-10 -0.452629)
(151.034 1.59035e-10 -0.412436)
(154.783 1.30661e-10 -0.369317)
(157.968 1.21308e-10 -0.324971)
(160.619 1.28704e-10 -0.28116)
(162.782 1.35428e-10 -0.239524)
(164.517 1.41384e-10 -0.201391)
(165.888 1.32342e-10 -0.16758)
(166.959 1.37047e-10 -0.138434)
(167.792 1.40999e-10 -0.11408)
(168.435 1.44321e-10 -0.0939691)
(17.732 -4.67501e-12 -0.00800484)
(17.8258 1.26118e-10 -0.0181107)
(17.995 1.03067e-10 -0.0287993)
(18.248 7.54013e-11 -0.0407661)
(18.5908 3.83321e-11 -0.0540452)
(19.0328 6.49389e-12 -0.0688188)
(19.5853 -2.06563e-11 -0.0852088)
(20.2606 -3.4389e-11 -0.103299)
(21.0717 -4.81491e-11 -0.123155)
(22.0328 -6.12968e-11 -0.144833)
(23.1589 -1.69525e-10 -0.168388)
(24.466 -7.64343e-11 -0.193882)
(25.9713 -7.29783e-11 -0.221379)
(27.6933 1.77787e-11 -0.250951)
(29.6512 1.72243e-11 -0.282662)
(31.8654 1.83343e-11 -0.316561)
(34.3569 2.08989e-11 -0.352672)
(37.1469 -5.12623e-11 -0.390976)
(40.2559 -1.16641e-10 -0.431397)
(43.7034 -9.74501e-11 -0.473781)
(47.5063 -2.16983e-11 -0.517887)
(51.6779 -3.59891e-11 -0.563357)
(56.2267 -4.41975e-11 -0.6097)
(61.1544 -4.55912e-11 -0.656278)
(66.4545 -4.12615e-11 -0.702288)
(72.1111 -3.11148e-12 -0.746773)
(78.0965 -2.4641e-11 -0.788602)
(84.3706 1.3234e-11 -0.826516)
(90.8815 4.94155e-11 -0.859316)
(97.5628 5.49372e-11 -0.88545)
(104.336 6.14763e-11 -0.903523)
(111.115 6.87086e-11 -0.912363)
(117.803 7.67213e-11 -0.910865)
(124.302 8.42445e-11 -0.898096)
(130.517 9.10671e-11 -0.873871)
(136.357 9.76352e-11 -0.838047)
(141.744 1.03691e-10 -0.791419)
(146.617 1.092e-10 -0.735224)
(150.937 1.23954e-10 -0.671368)
(154.686 1.18914e-10 -0.602322)
(157.871 1.14191e-10 -0.530921)
(160.522 1.1809e-10 -0.460103)
(162.684 1.21691e-10 -0.392601)
(164.417 1.24306e-10 -0.330637)
(165.786 1.18633e-10 -0.275643)
(166.856 1.20243e-10 -0.228278)
(167.687 1.20803e-10 -0.188707)
(168.328 1.21849e-10 -0.156202)
(17.7303 -7.82839e-11 -0.0116)
(17.824 -1.42685e-10 -0.0261361)
(17.9929 -1.15101e-10 -0.0415921)
(18.2452 -1.61748e-10 -0.0588549)
(18.5873 -2.9311e-10 -0.0779822)
(19.0284 -2.79253e-10 -0.0992163)
(19.5798 -2.63973e-10 -0.122726)
(20.2539 -1.34728e-10 -0.148627)
(21.0636 -1.53749e-10 -0.177012)
(22.0232 -1.56704e-10 -0.207958)
(23.1475 -1.52732e-10 -0.241544)
(24.4526 -1.45324e-10 -0.277857)
(25.9557 -3.14943e-11 -0.316986)
(27.6751 -2.93317e-11 -0.359032)
(29.6301 -2.81128e-11 -0.404077)
(31.8412 -1.80262e-11 -0.452186)
(34.3291 3.18752e-13 -0.503376)
(37.1151 5.73516e-11 -0.557603)
(40.2198 2.17665e-11 -0.614732)
(43.6625 3.09736e-11 -0.67451)
(47.4602 7.87874e-11 -0.73655)
(51.6264 8.38634e-11 -0.800297)
(56.1693 8.69958e-11 -0.864999)
(61.0909 1.2395e-10 -0.929701)
(66.3848 1.53986e-10 -0.99322)
(72.0351 1.51309e-10 -1.05417)
(78.0144 1.5012e-10 -1.11095)
(84.2828 1.1537e-10 -1.16179)
(90.7885 1.16145e-10 -1.20506)
(97.4653 1.15485e-10 -1.23867)
(104.235 1.27713e-10 -1.26077)
(111.011 1.24808e-10 -1.26986)
(117.698 1.23066e-10 -1.26455)
(124.197 1.07963e-10 -1.24367)
(130.412 9.42499e-11 -1.20708)
(136.253 9.45278e-11 -1.15469)
(141.642 9.32816e-11 -1.08767)
(146.518 9.3293e-11 -1.00781)
(150.839 9.37518e-11 -0.91779)
(154.59 9.38696e-11 -0.821051)
(157.776 9.41573e-11 -0.721527)
(160.426 9.44618e-11 -0.62328)
(162.588 1.0378e-10 -0.530058)
(164.32 1.01993e-10 -0.444882)
(165.687 1.01308e-10 -0.369619)
(166.754 1.01732e-10 -0.305026)
(167.583 1.02913e-10 -0.251294)
(168.222 1.03628e-10 -0.207526)
(17.7274 -3.13572e-13 -0.0162574)
(17.8212 8.91219e-11 -0.0363645)
(17.9896 1.69238e-10 -0.0577899)
(18.2413 2.27169e-10 -0.0816324)
(18.5826 1.16893e-10 -0.107998)
(19.0227 2.37424e-11 -0.137203)
(19.5729 1.55163e-11 -0.169469)
(20.2456 6.08722e-12 -0.204949)
(21.0538 -7.32332e-11 -0.243759)
(22.0116 -7.29511e-11 -0.285997)
(23.1339 -7.10507e-11 -0.33176)
(24.4367 -6.79257e-11 -0.381157)
(25.9372 -2.8913e-12 -0.434304)
(27.6537 -1.71974e-12 -0.491327)
(29.6055 1.88045e-12 -0.552333)
(31.8129 6.2846e-11 -0.617405)
(34.2967 6.43855e-11 -0.68656)
(37.0782 6.52559e-11 -0.759733)
(40.1779 6.52919e-11 -0.836736)
(43.6152 1.13452e-10 -0.917224)
(47.407 1.10705e-10 -1.00067)
(51.5669 1.29596e-10 -1.08632)
(56.1033 1.23054e-10 -1.17317)
(61.0181 1.16262e-10 -1.25992)
(66.3052 1.09485e-10 -1.34501)
(71.9487 1.24262e-10 -1.42656)
(77.9216 1.16735e-10 -1.50245)
(84.1841 1.09036e-10 -1.57033)
(90.6847 1.02242e-10 -1.628)
(97.3574 9.64135e-11 -1.67272)
(104.124 9.15187e-11 -1.70201)
(110.899 7.80639e-11 -1.71387)
(117.585 7.53454e-11 -1.70642)
(124.085 7.26665e-11 -1.67811)
(130.303 6.96006e-11 -1.62871)
(136.147 7.36896e-11 -1.55809)
(141.54 7.12404e-11 -1.46781)
(146.419 7.04504e-11 -1.36027)
(150.744 7.0519e-11 -1.23905)
(154.497 6.43946e-11 -1.1088)
(157.685 6.74954e-11 -0.974815)
(160.336 7.00833e-11 -0.842569)
(162.497 6.59954e-11 -0.717106)
(164.227 6.85303e-11 -0.602491)
(165.592 7.67712e-11 -0.501251)
(166.657 8.34859e-11 -0.414414)
(167.483 8.3941e-11 -0.342195)
(168.119 8.41784e-11 -0.283489)
(17.7228 -1.01185e-13 -0.0221101)
(17.8167 3.44067e-14 -0.0490592)
(17.9846 5.16911e-11 -0.0778564)
(18.2355 -2.09656e-13 -0.109802)
(18.5757 -6.61824e-12 -0.145062)
(19.0146 2.99499e-11 -0.184033)
(19.5635 1.79946e-11 -0.226997)
(20.2346 -3.54098e-11 -0.274143)
(21.0409 -8.31939e-11 -0.325611)
(21.9966 -4.43733e-11 -0.381517)
(23.1166 -4.77607e-11 -0.441979)
(24.4167 -4.83751e-11 -0.507131)
(25.9143 -4.82134e-11 -0.577114)
(27.6273 -4.76363e-11 -0.652088)
(29.5753 -1.08533e-11 -0.732184)
(31.7784 2.29063e-11 -0.8175)
(34.2575 1.83004e-11 -0.90805)
(37.0337 1.79771e-11 -1.00373)
(40.1277 2.09777e-11 -1.10429)
(43.5587 -7.40993e-12 -1.20924)
(47.3439 2.85884e-11 -1.31788)
(51.4968 2.32992e-13 -1.4292)
(56.0259 3.31534e-12 -1.54185)
(60.9333 6.4295e-12 -1.65413)
(66.2131 9.63601e-12 -1.76395)
(71.8496 -1.78826e-12 -1.86888)
(77.816 2.66631e-12 -1.96613)
(84.0728 -5.86757e-12 -2.05264)
(90.5688 8.74018e-13 -2.12558)
(97.2382 7.92839e-12 -2.18143)
(104.004 1.48733e-11 -2.21702)
(110.778 2.21971e-11 -2.2298)
(117.466 2.98319e-11 -2.21744)
(123.969 2.60939e-11 -2.17798)
(130.191 2.95715e-11 -2.11122)
(136.041 3.24355e-11 -2.01709)
(141.439 4.61777e-11 -1.89767)
(146.324 5.92131e-11 -1.75615)
(150.655 6.5347e-11 -1.59725)
(154.412 6.66972e-11 -1.42705)
(157.603 7.2221e-11 -1.25245)
(160.255 7.71286e-11 -1.08055)
(162.416 8.11729e-11 -0.917868)
(164.144 8.44547e-11 -0.76963)
(165.506 9.09842e-11 -0.639019)
(166.567 9.2551e-11 -0.527241)
(167.389 9.36429e-11 -0.434485)
(168.02 9.06231e-11 -0.359357)
(17.7154 -1.89783e-12 -0.0294855)
(17.8092 -1.57621e-12 -0.0647998)
(17.9765 -1.46719e-12 -0.102654)
(18.2264 2.87441e-11 -0.14452)
(18.5654 -3.08185e-11 -0.190638)
(19.0027 -5.52775e-11 -0.241499)
(19.5498 -5.73692e-11 -0.297445)
(20.2189 -5.817e-11 -0.358705)
(21.0231 -5.78152e-11 -0.425439)
(21.9762 -5.64619e-11 -0.497782)
(23.0933 -5.43979e-11 -0.57587)
(24.3903 -2.7406e-11 -0.659858)
(25.8843 -2.35823e-11 -0.749918)
(27.5933 -1.97251e-11 -0.846242)
(29.5367 -1.39764e-11 -0.948984)
(31.7348 1.22637e-11 -1.05826)
(34.2083 3.46731e-11 -1.17406)
(36.9784 3.69679e-11 -1.29625)
(40.0657 6.18042e-11 -1.42447)
(43.4896 6.54468e-11 -1.5581)
(47.2673 6.93327e-11 -1.69621)
(51.4123 5.22542e-11 -1.83748)
(55.9333 5.56904e-11 -1.98017)
(60.8327 5.91045e-11 -2.12211)
(66.1047 6.25323e-11 -2.26061)
(71.734 5.65423e-11 -2.39258)
(77.694 7.86891e-11 -2.51446)
(83.9456 8.18824e-11 -2.62241)
(90.4378 8.49709e-11 -2.71284)
(97.1053 8.79095e-11 -2.78132)
(103.871 9.06423e-11 -2.82392)
(110.647 1.01789e-10 -2.83745)
(117.339 1.11979e-10 -2.81903)
(123.849 1.13705e-10 -2.76627)
(130.078 1.14934e-10 -2.67899)
(135.936 1.15657e-10 -2.55717)
(141.344 1.19444e-10 -2.40355)
(146.238 1.19353e-10 -2.22222)
(150.576 1.15434e-10 -2.01925)
(154.34 1.147e-10 -1.80236)
(157.535 1.13564e-10 -1.58033)
(160.189 1.15101e-10 -1.36215)
(162.35 1.13e-10 -1.15604)
(164.075 1.10792e-10 -0.968571)
(165.432 1.08354e-10 -0.803706)
(166.488 1.05904e-10 -0.662894)
(167.304 1.03633e-10 -0.546252)
(167.929 9.99388e-11 -0.451995)
(17.7037 -3.90794e-11 -0.0385793)
(17.7974 5.7696e-12 -0.0840565)
(17.9638 4.4188e-12 -0.132927)
(18.2123 3.32029e-12 -0.186823)
(18.5495 9.20934e-13 -0.246069)
(18.9848 -1.83852e-12 -0.31127)
(19.5296 -2.78366e-12 -0.382833)
(20.1962 -2.39646e-12 -0.461021)
(20.9975 -1.233e-12 -0.546013)
(21.9475 2.88925e-13 -0.637956)
(23.0611 3.34081e-12 -0.736998)
(24.3542 6.07417e-12 -0.843322)
(25.8437 3.98367e-11 -0.957124)
(27.5479 4.22015e-11 -1.07863)
(29.4858 7.40609e-11 -1.20802)
(31.6778 7.35731e-11 -1.34543)
(34.1447 7.28725e-11 -1.49082)
(36.9076 7.23792e-11 -1.644)
(39.9872 7.33313e-11 -1.80449)
(43.403 7.45666e-11 -1.97149)
(47.172 7.60525e-11 -2.1438)
(51.3082 6.46152e-11 -2.31974)
(55.8205 6.70139e-11 -2.49712)
(60.7113 6.94426e-11 -2.67317)
(65.9753 7.22177e-11 -2.84453)
(71.5974 7.48804e-11 -3.00732)
(77.5516 7.74918e-11 -3.15709)
(83.7989 8.00147e-11 -3.28906)
(90.289 8.23928e-11 -3.39876)
(96.9566 8.48522e-11 -3.48074)
(103.725 8.70957e-11 -3.53016)
(110.506 9.50334e-11 -3.54313)
(117.206 9.65702e-11 -3.51615)
(123.725 1.03011e-10 -3.44639)
(129.967 1.0307e-10 -3.33373)
(135.838 1.02496e-10 -3.1783)
(141.259 1.01274e-10 -2.98361)
(146.166 1.0428e-10 -2.75488)
(150.516 1.01444e-10 -2.49973)
(154.288 9.81102e-11 -2.22788)
(157.489 9.43589e-11 -1.95025)
(160.146 9.02691e-11 -1.67805)
(162.305 8.59258e-11 -1.42148)
(164.027 8.32897e-11 -1.18864)
(165.377 7.83364e-11 -0.984372)
(166.425 7.37958e-11 -0.810359)
(167.232 7.15542e-11 -0.66658)
(167.848 6.57915e-11 -0.550725)
(17.6858 2.75603e-11 -0.0497086)
(17.779 2.63892e-11 -0.107387)
(17.944 2.65724e-11 -0.169479)
(18.1905 2.6617e-11 -0.237784)
(18.5253 1.64522e-12 -0.312724)
(18.9579 -1.97997e-11 -0.395037)
(19.4996 -1.38501e-11 -0.485192)
(20.1627 -7.46196e-12 -0.583481)
(20.9604 -2.19307e-12 -0.690094)
(21.9064 1.99813e-12 -0.805178)
(23.0156 2.60818e-11 -0.928894)
(24.3038 2.60884e-11 -1.06144)
(25.7879 2.66864e-11 -1.20305)
(27.486 4.76767e-11 -1.35398)
(29.4173 4.72068e-11 -1.51444)
(31.6021 4.80728e-11 -1.68455)
(34.0611 4.87161e-11 -1.86428)
(36.8155 4.92928e-11 -2.05334)
(39.886 6.85665e-11 -2.25112)
(43.2923 6.83456e-11 -2.45659)
(47.0517 6.82691e-11 -2.66825)
(51.1781 7.76656e-11 -2.88399)
(55.6809 7.7637e-11 -3.10108)
(60.5627 7.75484e-11 -3.31608)
(65.8187 8.60567e-11 -3.52483)
(71.4342 8.4212e-11 -3.72254)
(77.3835 8.31789e-11 -3.90374)
(83.6283 8.23696e-11 -4.06257)
(90.1184 8.14034e-11 -4.19353)
(96.7891 8.44922e-11 -4.29003)
(103.563 8.31681e-11 -4.34619)
(110.354 8.55035e-11 -4.35732)
(117.067 8.30399e-11 -4.31926)
(123.601 7.98407e-11 -4.2287)
(129.86 7.62878e-11 -4.08562)
(135.75 7.23063e-11 -3.89036)
(141.19 6.79172e-11 -3.64737)
(146.114 6.27799e-11 -3.36317)
(150.48 5.74889e-11 -3.04723)
(154.265 5.21219e-11 -2.71153)
(157.473 4.67585e-11 -2.36952)
(160.133 4.1471e-11 -2.03493)
(162.29 3.64316e-11 -1.72026)
(164.006 2.98556e-11 -1.43537)
(165.347 2.39189e-11 -1.18613)
(166.382 2.01331e-11 -0.974493)
(167.177 1.68242e-11 -0.800212)
(167.781 1.38687e-11 -0.66027)
(17.6586 4.69219e-13 -0.0630388)
(17.7509 1.96807e-12 -0.135145)
(17.9141 2.30941e-11 -0.212851)
(18.1578 2.27825e-11 -0.29816)
(18.4891 2.00022e-11 -0.391604)
(18.9178 3.04738e-11 -0.494068)
(19.4553 4.15992e-11 -0.606081)
(20.114 5.17664e-11 -0.727948)
(20.9069 4.70389e-11 -0.859853)
(21.8477 4.33111e-11 -1.00193)
(22.9512 2.59789e-11 -1.15435)
(24.2332 1.02214e-11 -1.31733)
(25.7105 2.3595e-11 -1.49111)
(27.4012 2.16273e-11 -1.67601)
(29.3244 1.97863e-11 -1.87225)
(31.5003 4.50846e-11 -2.07998)
(33.9499 4.05206e-11 -2.29911)
(36.6942 3.7234e-11 -2.52927)
(39.7542 2.16391e-11 -2.76969)
(43.1496 2.05001e-11 -3.01907)
(46.8981 1.94848e-11 -3.27555)
(51.0138 1.85569e-11 -3.53654)
(55.5064 1.77008e-11 -3.79867)
(60.3791 1.68986e-11 -4.05774)
(65.6275 2.23953e-11 -4.30868)
(71.2373 2.08474e-11 -4.54564)
(77.1834 1.91152e-11 -4.76199)
(83.4281 1.75697e-11 -4.9506)
(89.9216 1.60121e-11 -5.10482)
(96.5995 1.44559e-11 -5.21673)
(103.385 1.28569e-11 -5.2793)
(110.191 1.11446e-11 -5.28693)
(116.923 9.0955e-12 -5.23472)
(123.479 4.2998e-12 -5.11887)
(129.762 5.15008e-12 -4.9395)
(135.678 2.92968e-12 -4.69723)
(141.143 5.00769e-13 -4.39764)
(146.092 -7.32993e-12 -4.04877)
(150.477 -9.44632e-12 -3.66222)
(154.278 -1.157e-11 -3.25259)
(157.497 -1.36408e-11 -2.83622)
(160.16 -1.55806e-11 -2.42979)
(162.314 -1.61614e-11 -2.04844)
(164.02 -2.00963e-11 -1.70411)
(165.348 -2.02826e-11 -1.40385)
(166.368 -2.14835e-11 -1.14991)
(167.146 -2.24271e-11 -0.941713)
(167.733 -2.41407e-11 -0.77529)
(17.6187 1.10799e-11 -0.078705)
(17.7095 -1.77352e-12 -0.16754)
(17.8699 -1.7847e-12 -0.263317)
(18.1097 -1.78567e-12 -0.368315)
(18.4362 -1.78424e-12 -0.483197)
(18.8596 -1.70791e-12 -0.609006)
(19.3915 -3.55386e-12 -0.746319)
(20.0442 -2.58345e-11 -0.895431)
(20.8306 -2.54349e-11 -1.05649)
(21.7647 -2.58804e-11 -1.22961)
(22.861 -1.6084e-11 -1.41494)
(24.1352 -7.66537e-12 -1.61272)
(25.604 -1.96793e-11 -1.82322)
(27.2855 -3.13855e-11 -2.0468)
(29.1987 -3.266e-11 -2.28371)
(31.3639 -3.42176e-11 -2.53411)
(33.8021 -3.57427e-11 -2.79788)
(36.5345 -4.7154e-11 -3.07454)
(39.5822 -3.91469e-11 -3.36312)
(42.9652 -3.1937e-11 -3.66204)
(46.7014 -3.42629e-11 -3.96902)
(50.8055 -3.63337e-11 -4.28092)
(55.2875 -3.80326e-11 -4.59366)
(60.1512 -3.9348e-11 -4.90217)
(65.3927 -4.03097e-11 -5.20033)
(70.9985 -4.09684e-11 -5.4811)
(76.944 -4.1375e-11 -5.73649)
(83.1921 -3.69142e-11 -5.95798)
(89.6935 -3.69797e-11 -6.13757)
(96.384 -3.69203e-11 -6.26585)
(103.187 -3.67479e-11 -6.33448)
(110.016 -3.64664e-11 -6.33685)
(116.774 -3.84977e-11 -6.26725)
(123.361 -3.39963e-11 -6.12133)
(129.678 -3.3889e-11 -5.89942)
(135.627 -3.36743e-11 -5.60249)
(141.126 -3.52316e-11 -5.2374)
(146.106 -3.61879e-11 -4.81396)
(150.519 -3.50835e-11 -4.34622)
(154.339 -3.4438e-11 -3.85175)
(157.57 -3.40513e-11 -3.35023)
(160.236 -3.34454e-11 -2.86173)
(162.385 -3.26579e-11 -2.40448)
(164.079 -3.17246e-11 -1.99285)
(165.388 -3.16902e-11 -1.63529)
(166.386 -3.08949e-11 -1.33443)
(167.142 -3.00835e-11 -1.08915)
(167.707 -2.91087e-11 -0.894267)
(17.5617 -1.76386e-11 -0.0964894)
(17.6503 3.84338e-13 -0.204251)
(17.8068 3.14517e-13 -0.320447)
(18.0412 2.87869e-13 -0.447728)
(18.3612 3.36858e-13 -0.586934)
(18.7774 1.16893e-12 -0.73927)
(19.3017 -2.95786e-11 -0.905336)
(19.9464 -1.26733e-11 -1.08538)
(20.7246 -1.19939e-11 -1.27947)
(21.6499 -2.72278e-11 -1.48766)
(22.737 -2.72351e-11 -1.71009)
(24.0013 -2.87245e-11 -1.947)
(25.4595 -1.75605e-11 -2.1987)
(27.1296 -2.03737e-11 -2.4656)
(29.0307 -2.24311e-11 -2.74799)
(31.1829 -3.14506e-11 -3.04605)
(33.6074 -3.28148e-11 -3.35962)
(36.3258 -3.40549e-11 -3.68811)
(39.3592 -3.52102e-11 -4.03036)
(42.7281 -3.63013e-11 -4.38445)
(46.4507 -3.00599e-11 -4.74764)
(50.5423 -3.09398e-11 -5.11617)
(55.0135 -3.17228e-11 -5.48518)
(59.8687 -3.23959e-11 -5.84862)
(65.1047 -3.27796e-11 -6.19919)
(70.7088 -3.28585e-11 -6.52849)
(76.6572 -3.26959e-11 -6.82706)
(82.9132 -3.24417e-11 -7.08471)
(89.4283 -3.19566e-11 -7.29195)
(96.1384 -3.12516e-11 -7.43768)
(102.967 -3.02158e-11 -7.51211)
(109.827 -2.89505e-11 -7.50747)
(116.622 -2.75422e-11 -7.41714)
(123.25 -2.28325e-11 -7.23622)
(129.611 -2.47863e-11 -6.96526)
(135.605 -2.49263e-11 -6.60565)
(141.148 -2.3556e-11 -6.16569)
(146.167 -2.23284e-11 -5.65719)
(150.613 -2.27839e-11 -5.09695)
(154.459 -2.16448e-11 -4.50594)
(157.704 -1.90636e-11 -3.90766)
(160.374 -1.82071e-11 -3.32607)
(162.514 -1.74244e-11 -2.78302)
(164.19 -1.66033e-11 -2.29575)
(165.475 -1.58902e-11 -1.87442)
(166.444 -1.53199e-11 -1.5221)
(167.17 -1.61862e-11 -1.23695)
(167.707 -1.55182e-11 -1.01213)
(17.4831 -3.22316e-13 -0.116132)
(17.5686 -7.63414e-13 -0.244601)
(17.72 -7.20334e-13 -0.38315)
(17.947 -8.4704e-14 -0.53493)
(18.2583 9.50369e-13 -0.701027)
(18.6649 1.35258e-11 -0.882806)
(19.1791 1.36551e-11 -1.08084)
(19.8135 1.70726e-12 -1.29526)
(20.581 1.86136e-12 -1.52601)
(21.4953 -9.46859e-12 -1.77305)
(22.5708 -2.01322e-11 -2.03645)
(23.8229 -1.88836e-11 -2.31649)
(25.268 -6.42159e-12 -2.61352)
(26.9242 -5.57041e-12 -2.92801)
(28.8104 -4.845e-12 -3.26033)
(30.9471 -4.23943e-12 -3.61068)
(33.3556 -3.74206e-12 -3.97888)
(36.0574 -3.34048e-12 -4.36423)
(39.0744 -3.02076e-12 -4.76535)
(42.4273 -2.89524e-12 -5.18)
(46.135 -2.81631e-12 -5.60492)
(50.2134 -2.77402e-12 -6.0357)
(54.6736 -2.75578e-12 -6.46659)
(59.5212 -2.79273e-12 -6.89048)
(64.7536 2.74276e-12 -7.29876)
(70.3591 8.2641e-12 -7.68154)
(76.3147 1.08316e-11 -8.02763)
(82.5845 7.72286e-12 -8.32507)
(89.1203 7.49478e-12 -8.56263)
(95.8585 7.34768e-12 -8.72734)
(102.722 9.94388e-12 -8.80775)
(109.625 9.73314e-12 -8.79474)
(116.468 9.17102e-12 -8.68068)
(123.149 5.28976e-12 -8.46002)
(129.566 4.31758e-12 -8.13354)
(135.617 6.63027e-13 -7.70317)
(141.215 -2.32837e-13 -7.17877)
(146.284 -1.07316e-12 -6.57441)
(150.772 -1.92808e-12 -5.90995)
(154.648 -2.70777e-12 -5.21019)
(157.91 -3.47219e-12 -4.50294)
(160.581 -4.27669e-12 -3.81665)
(162.71 -5.00125e-12 -3.17742)
(164.362 -4.41066e-12 -2.6059)
(165.614 -5.04277e-12 -2.11437)
(166.546 -5.48608e-12 -1.70647)
(167.233 -5.78356e-12 -1.37933)
(167.735 -5.96348e-12 -1.12391)
(17.3792 -9.73742e-12 -0.13676)
(17.4606 -9.63725e-12 -0.287005)
(17.605 -7.28422e-14 -0.449145)
(17.8224 8.26858e-12 -0.626975)
(18.1222 1.57968e-11 -0.821938)
(18.5164 1.37407e-11 -1.03555)
(19.0178 1.2083e-11 -1.26827)
(19.6391 1.61365e-12 -1.52002)
(20.3933 1.57329e-12 -1.79051)
(21.2939 1.75195e-12 -2.07955)
(22.3551 1.10629e-11 -2.38719)
(23.5921 2.00841e-11 -2.71368)
(25.0215 1.99741e-11 -3.05947)
(26.6609 1.97692e-11 -3.42512)
(28.5295 1.92594e-11 -3.81108)
(30.6479 1.87116e-11 -4.21763)
(33.0374 1.81524e-11 -4.64457)
(35.7202 1.76058e-11 -5.09115)
(38.7185 1.7091e-11 -5.55575)
(42.0535 1.21357e-11 -6.03579)
(45.7448 1.16226e-11 -6.52752)
(49.8092 1.10785e-11 -7.02577)
(54.2587 1.05714e-11 -7.52391)
(59.0998 9.57023e-12 -8.01365)
(64.331 7.66758e-12 -8.48494)
(69.9416 6.16407e-12 -8.9262)
(75.9095 4.86948e-12 -9.32437)
(82.1997 1.52988e-12 -9.66544)
(88.7645 2.77309e-12 -9.93624)
(95.5403 1.75709e-12 -10.1218)
(102.451 -1.53432e-12 -10.2089)
(109.408 -2.5928e-12 -10.1869)
(116.313 -3.685e-12 -10.0469)
(123.06 -4.78944e-12 -9.7827)
(129.547 -5.91663e-12 -9.39517)
(135.669 -8.18812e-12 -8.8867)
(141.334 -9.30263e-12 -8.26888)
(146.464 -9.07256e-12 -7.55821)
(151.001 -9.75585e-12 -6.77796)
(154.914 -9.13624e-12 -5.95718)
(158.195 -9.40285e-12 -5.12853)
(160.868 -1.04552e-11 -4.3256)
(162.98 -1.01065e-11 -3.57946)
(164.601 -9.40806e-12 -2.91492)
(165.81 -9.4816e-12 -2.34694)
(166.694 -8.36278e-12 -1.87989)
(167.334 -7.3292e-12 -1.5095)
(167.793 -6.33288e-12 -1.22382)
(17.2478 1.87672e-13 -0.157379)
(17.324 -7.20643e-12 -0.329381)
(17.4595 -6.43407e-12 -0.515288)
(17.6645 -1.29582e-11 -0.719718)
(17.9497 -1.95942e-11 -0.944632)
(18.3282 -2.56916e-11 -1.19166)
(18.8136 -2.46998e-11 -1.46102)
(19.4188 -3.11321e-11 -1.75224)
(20.1568 -2.29232e-11 -2.06471)
(21.0409 -2.24234e-11 -2.39803)
(22.0851 -1.49355e-11 -2.75218)
(23.3043 -1.54971e-11 -3.12744)
(24.715 -1.52191e-11 -3.52436)
(26.3347 -1.47044e-11 -3.94364)
(28.1828 -2.148e-11 -4.38588)
(30.2798 -2.10448e-11 -4.85146)
(32.6476 -2.07088e-11 -5.34023)
(35.3087 -2.04766e-11 -5.85138)
(38.2857 -2.0338e-11 -6.38313)
(41.6008 -2.02806e-11 -6.93254)
(45.2744 -2.02421e-11 -7.49536)
(49.3241 -2.40487e-11 -8.06569)
(53.7631 -2.42614e-11 -8.63589)
(58.5989 -2.82149e-11 -9.1965)
(63.8315 -2.85375e-11 -9.73599)
(69.4512 -2.88491e-11 -10.241)
(75.437 -3.28003e-11 -10.6964)
(81.7547 -2.89292e-11 -11.086)
(88.3573 -2.90131e-11 -11.394)
(95.1812 -3.09266e-11 -11.6033)
(102.15 -3.06361e-11 -11.6984)
(109.174 -2.99778e-11 -11.6671)
(116.155 -2.89876e-11 -11.4994)
(122.984 -2.76622e-11 -11.1883)
(129.556 -2.59528e-11 -10.7349)
(135.762 -2.39985e-11 -10.1418)
(141.508 -2.07062e-11 -9.42251)
(146.711 -1.80569e-11 -8.59599)
(151.308 -1.52769e-11 -7.68916)
(155.263 -1.23512e-11 -6.73567)
(158.566 -9.30435e-12 -5.77353)
(161.239 -6.22332e-12 -4.84217)
(163.33 -3.09693e-12 -3.97849)
(164.91 9.042e-13 -3.21237)
(166.066 3.76673e-12 -2.56218)
(166.891 6.17767e-12 -2.03335)
(167.472 7.73433e-12 -1.61972)
(167.878 9.41516e-12 -1.30539)
(17.0901 6.66298e-12 -0.176537)
(17.1596 6.63234e-12 -0.368922)
(17.2839 6.57945e-12 -0.577462)
(17.4735 6.50715e-12 -0.807831)
(17.7405 3.14723e-13 -1.06271)
(18.0999 7.19068e-12 -1.34378)
(18.5659 1.87396e-12 -1.6508)
(19.1521 3.08078e-12 -1.98265)
(19.8711 4.08478e-12 -2.33825)
(20.7361 -1.24284e-12 -2.71694)
(21.7606 6.2357e-12 -3.11863)
(22.9594 1.3847e-11 -3.54366)
(24.3486 2.07632e-11 -3.99273)
(25.9458 2.04514e-11 -4.46673)
(27.7704 2.07224e-11 -4.96648)
(29.8432 2.12812e-11 -5.49251)
(32.1864 2.20916e-11 -6.0448)
(34.8231 2.29959e-11 -6.62252)
(37.7765 2.40586e-11 -7.22378)
(41.0697 2.52616e-11 -7.84531)
(44.7241 2.97645e-11 -8.48243)
(48.7583 2.79184e-11 -9.12854)
(53.1869 2.59474e-11 -9.77496)
(58.0188 3.04197e-11 -10.4107)
(63.2551 2.52065e-11 -11.0226)
(68.8878 2.33244e-11 -11.5954)
(74.8969 2.47295e-11 -12.112)
(81.2493 2.61107e-11 -12.554)
(87.8985 2.57676e-11 -12.9037)
(94.7807 2.85632e-11 -13.1417)
(101.819 2.94374e-11 -13.2495)
(108.925 3.21446e-11 -13.2121)
(115.995 3.32498e-11 -13.0179)
(122.92 3.60582e-11 -12.6589)
(129.592 3.71643e-11 -12.1364)
(135.898 3.73389e-11 -11.4539)
(141.738 3.832e-11 -10.6265)
(147.026 3.83642e-11 -9.676)
(151.692 3.91819e-11 -8.63303)
(155.696 3.97782e-11 -7.53614)
(159.025 4.00904e-11 -6.42906)
(161.696 3.93069e-11 -5.35774)
(163.76 3.91236e-11 -4.36588)
(165.29 3.85757e-11 -3.48965)
(166.381 3.8514e-11 -2.75192)
(167.132 3.82533e-11 -2.15966)
(167.643 3.74389e-11 -1.70413)
(167.988 3.62389e-11 -1.36415)
(16.9105 5.68359e-12 -0.192747)
(16.972 5.46976e-12 -0.402646)
(17.0826 5.18087e-12 -0.631264)
(17.2533 4.85229e-12 -0.885618)
(17.4984 4.59722e-12 -1.16939)
(17.835 1.52291e-11 -1.48418)
(18.2786 2.55083e-11 -1.8289)
(18.843 3.52005e-11 -2.20148)
(19.5408 3.39327e-11 -2.60015)
(20.3844 2.74072e-11 -3.02398)
(21.3871 2.66943e-11 -3.47282)
(22.5632 3.18209e-11 -3.94714)
(23.9286 2.59956e-11 -4.44783)
(25.5009 2.02548e-11 -4.97607)
(27.2995 2.03384e-11 -5.53294)
(29.3456 2.07196e-11 -6.11923)
(31.6616 2.70209e-11 -6.73509)
(34.2714 2.80359e-11 -7.37977)
(37.199 3.50341e-11 -8.05133)
(40.4683 4.24725e-11 -8.7463)
(44.1019 4.4505e-11 -9.45927)
(48.1199 4.67013e-11 -10.1826)
(52.538 4.8766e-11 -10.9071)
(57.366 5.04046e-11 -11.6215)
(62.607 5.22733e-11 -12.3107)
(68.2545 5.41925e-11 -12.9573)
(74.2903 5.57601e-11 -13.5412)
(80.6824 5.81755e-11 -14.0409)
(87.3857 6.0913e-11 -14.4345)
(94.336 6.37014e-11 -14.7014)
(101.456 6.46385e-11 -14.8227)
(108.655 6.35525e-11 -14.7814)
(115.829 6.34519e-11 -14.5635)
(122.865 6.30171e-11 -14.1591)
(129.65 6.20766e-11 -13.5681)
(136.07 6.04783e-11 -12.7947)
(142.019 5.89655e-11 -11.8558)
(147.403 5.61131e-11 -10.776)
(152.149 5.2744e-11 -9.59008)
(156.209 4.81143e-11 -8.34158)
(159.566 4.31195e-11 -7.08016)
(162.236 3.8633e-11 -5.85881)
(164.267 3.38685e-11 -4.72915)
(165.737 2.8905e-11 -3.73509)
(166.749 2.41472e-11 -2.90557)
(167.414 2.02242e-11 -2.24984)
(167.842 1.69797e-11 -1.75569)
(168.118 1.41969e-11 -1.39481)
(16.7173 9.37328e-16 -0.204597)
(16.7692 1.78054e-15 -0.427749)
(16.8634 3.29118e-15 -0.672557)
(17.0118 -3.09621e-13 -0.947789)
(17.231 -5.27508e-13 -1.2585)
(17.5413 -8.7858e-13 -1.60594)
(17.96 -1.10416e-12 -1.98762)
(18.5007 -6.33527e-12 -2.4)
(19.1756 -6.28891e-12 -2.84052)
(19.9965 -6.24328e-12 -3.30795)
(20.9758 -6.20597e-12 -3.80216)
(22.1277 -6.27216e-12 -4.3238)
(23.4677 -1.15764e-11 -4.87405)
(25.0133 -1.70059e-11 -5.45444)
(26.784 -1.73002e-11 -6.0664)
(28.8013 -1.76183e-11 -6.71107)
(31.0882 -2.33249e-11 -7.38886)
(33.669 -2.39348e-11 -8.09918)
(36.5688 -2.73355e-11 -8.83995)
(39.8128 -2.82091e-11 -9.60711)
(43.4238 -2.91485e-11 -10.3961)
(47.423 -3.01532e-11 -11.1993)
(51.8285 -3.11821e-11 -12.0056)
(56.6528 -3.2162e-11 -12.8009)
(61.9004 -3.31035e-11 -13.5692)
(67.566 -3.40277e-11 -14.2914)
(73.6328 -3.49569e-11 -14.9455)
(80.0695 -3.59133e-11 -15.5077)
(86.8309 -3.83728e-11 -15.9549)
(93.8542 -3.93553e-11 -16.262)
(101.063 -4.18134e-11 -16.404)
(108.365 -4.27173e-11 -16.36)
(115.653 -4.65212e-11 -16.1175)
(122.812 -4.71251e-11 -15.6677)
(129.725 -4.84992e-11 -15.0096)
(136.272 -4.91641e-11 -14.1461)
(142.342 -4.9584e-11 -13.0951)
(147.834 -4.97863e-11 -11.8835)
(152.669 -4.97749e-11 -10.5503)
(156.793 -4.95724e-11 -9.14405)
(160.182 -4.91245e-11 -7.72049)
(162.85 -4.84392e-11 -6.34006)
(164.843 -4.74688e-11 -5.06337)
(166.244 -4.62537e-11 -3.94392)
(167.164 -4.496e-11 -3.01884)
(167.729 -4.38777e-11 -2.30092)
(168.064 -4.21728e-11 -1.77316)
(168.263 -4.13744e-11 -1.39751)
(16.5211 -5.8662e-17 -0.210967)
(16.5619 -6.92564e-16 -0.44203)
(16.637 1.35254e-14 -0.698094)
(16.7593 -4.68025e-12 -0.99026)
(16.9489 -4.24047e-12 -1.32545)
(17.2299 -8.85581e-12 -1.70413)
(17.6216 -8.05267e-12 -2.12146)
(18.1378 -7.28877e-12 -2.57191)