/*--------------------------------*- C++ -*----------------------------------*\
| =========                 |                                                 |
| \\      /  F ield         | OpenFOAM: The Open Source CFD Toolbox           |
|  \\    /   O peration     | Version:  2212                                  |
|   \\  /    A nd           | Website:  www.openfoam.com                      |
|    \\/     M anipulation  |                                                 |
\*---------------------------------------------------------------------------*/
FoamFile
{
    version     2.0;
    format      ascii;
    arch        "LSB;label=32;scalar=64";
    class       volScalarField;
    location    "0.05";
    object      alphat;
}
// * * * * * * * * * * * * * * * * * * * * * * * * * * * * * * * * * * * * * //

dimensions      [1 -1 -1 0 0 0 0];

internalField   nonuniform List<scalar> 
18080
(
8.0516124e-08
1.1395604e-07
1.1791133e-07
9.2864397e-08
7.5316124e-08
6.2702253e-08
5.3410365e-08
2.414135e-09
4.687287e-09
5.692243e-09
6.1927652e-09
6.4330848e-09
6.5334935e-09
6.5582249e-09
6.5393108e-09
6.492179e-09
6.4444789e-09
6.386839e-09
6.30369e-09
6.207695e-09
6.0942747e-09
5.96452e-09
5.8224037e-09
5.6719593e-09
5.5163684e-09
5.358526e-09
5.2011544e-09
5.0464816e-09
4.896517e-09
4.7528891e-09
4.6169192e-09
4.4897576e-09
4.372541e-09
4.2660151e-09
4.1712612e-09
4.0891843e-09
4.0208289e-09
3.9675838e-09
3.9310069e-09
3.9130995e-09
3.9164569e-09
3.9444005e-09
4.0011652e-09
4.0920735e-09
4.2236784e-09
4.4010291e-09
4.6378382e-09
4.9599556e-09
8.1362859e-08
1.1348424e-07
1.1984309e-07
9.4788751e-08
7.7045026e-08
6.4264367e-08
5.4758384e-08
2.7478679e-09
4.6453872e-09
5.523258e-09
5.9767793e-09
6.204533e-09
6.3130993e-09
6.3560343e-09
6.3586947e-09
6.337658e-09
6.325005e-09
6.274772e-09
6.2003477e-09
6.1012315e-09
5.980861e-09
5.8441532e-09
5.6952579e-09
5.538077e-09
5.3760765e-09
5.212633e-09
5.0507026e-09
4.8925948e-09
4.7401692e-09
4.5955232e-09
4.4597916e-09
4.3339441e-09
4.2192946e-09
4.116764e-09
4.0270263e-09
3.951498e-09
3.890868e-09
3.8466838e-09
3.8204076e-09
3.8138645e-09
3.8293841e-09
3.8698764e-09
3.9390002e-09
4.0413065e-09
4.1824123e-09
4.366577e-09
4.606957e-09
4.9268733e-09
8.0978324e-08
1.1211818e-07
1.2049503e-07
9.5139633e-08
7.7210244e-08
6.4292114e-08
5.4731611e-08
2.4628595e-09
4.654201e-09
5.612452e-09
6.1016161e-09
6.3357035e-09
6.4340481e-09
6.4599827e-09
6.4446693e-09
6.4023921e-09
6.3589132e-09
6.3061931e-09
6.2238919e-09
6.1245567e-09
6.0061759e-09
5.8720347e-09
5.726641e-09
5.5740316e-09
5.4166032e-09
5.2574271e-09
5.0994255e-09
4.9448787e-09
4.7956346e-09
4.6535175e-09
4.519558e-09
4.3946545e-09
4.2799667e-09
4.1763107e-09
4.0844554e-09
4.0057943e-09
3.9411825e-09
3.8922985e-09
3.860777e-09
3.8486325e-09
3.8583822e-09
3.8931148e-09
3.9566542e-09
4.0536866e-09
4.1899808e-09
4.3699596e-09
4.6071028e-09
4.92343e-09
8.1532717e-08
1.1294751e-07
1.2033808e-07
9.5200137e-08
7.7299049e-08
6.433585e-08
5.4744699e-08
1.9213913e-09
4.4221326e-09
5.6534368e-09
6.2173996e-09
6.4848795e-09
6.5878659e-09
6.6023024e-09
6.5686506e-09
6.5065986e-09
6.4249252e-09
6.3506166e-09
6.2624491e-09
6.1499948e-09
6.0237197e-09
5.883053e-09
5.7303613e-09
5.5697274e-09
5.4051705e-09
5.2399898e-09
5.0769638e-09
4.918253e-09
4.7656626e-09
4.6209968e-09
4.4853196e-09
4.3595661e-09
4.2448626e-09
4.1419368e-09
4.0515192e-09
3.9747554e-09
3.9124075e-09
3.8659528e-09
3.8368893e-09
3.8271372e-09
3.8391576e-09
3.8760288e-09
3.9416078e-09
4.04064e-09
4.1789667e-09
4.3610989e-09
4.600892e-09
4.9191547e-09
8.1790835e-08
1.1263512e-07
1.2063444e-07
9.5410935e-08
7.7422261e-08
6.4368438e-08
5.4699373e-08
1.4577511e-09
4.1353425e-09
5.6169731e-09
6.2930453e-09
6.6111688e-09
6.7332085e-09
6.7457121e-09
6.6988686e-09
6.6193199e-09
6.5198637e-09
6.40615e-09
6.3067468e-09
6.1903044e-09
6.0550394e-09
5.9099548e-09
5.7563302e-09
5.5954081e-09
5.431103e-09
5.266442e-09
5.1040107e-09
4.945838e-09
4.7936077e-09
4.649062e-09
4.5131992e-09
4.3869122e-09
4.2713301e-09
4.1672202e-09
4.0753261e-09
3.9968998e-09
3.9327566e-09
3.8844722e-09
3.8536317e-09
3.8422364e-09
3.8528223e-09
3.8885344e-09
3.9532966e-09
4.0519146e-09
4.1903176e-09
4.3730677e-09
4.6143494e-09
4.9340717e-09
8.2465673e-08
1.1315652e-07
1.2050868e-07
9.5422159e-08
7.747026e-08
6.4397606e-08
5.4685312e-08
1.1374406e-09
3.6766915e-09
5.4131415e-09
6.3069765e-09
6.6923221e-09
6.8504983e-09
6.8750629e-09
6.8245982e-09
6.7331175e-09
6.6185528e-09
6.4894297e-09
6.3495941e-09
6.2290963e-09
6.0889104e-09
5.9346214e-09
5.7738862e-09
5.6094661e-09
5.4417284e-09
5.2738435e-09
5.1085455e-09
4.9479382e-09
4.7937343e-09
4.6476174e-09
4.5105298e-09
4.3833238e-09
4.2670572e-09
4.1624235e-09
4.0701396e-09
3.9914092e-09
3.9270334e-09
3.8785816e-09
3.8476351e-09
3.8362082e-09
3.8468602e-09
3.8827743e-09
3.9479339e-09
4.0472185e-09
4.1866281e-09
4.3707216e-09
4.6140547e-09
4.9357453e-09
8.3569682e-08
1.1396983e-07
1.2035771e-07
9.545064e-08
7.7538571e-08
6.4448037e-08
5.4692117e-08
8.5484311e-10
3.2637443e-09
5.1677777e-09
6.2325363e-09
6.7304503e-09
6.9365699e-09
6.9848879e-09
6.940176e-09
6.8431305e-09
6.7173643e-09
6.5752028e-09
6.4225454e-09
6.2683608e-09
6.125814e-09
5.9679348e-09
5.800606e-09
5.6302616e-09
5.460378e-09
5.2907035e-09
5.1239656e-09
4.9621984e-09
4.8070124e-09
4.6600241e-09
4.5221154e-09
4.3941037e-09
4.2770314e-09
4.1715884e-09
4.0784924e-09
3.9989726e-09
3.9338404e-09
3.8847008e-09
3.8531628e-09
3.8412846e-09
3.8516808e-09
3.8876085e-09
3.953152e-09
4.053317e-09
4.1942402e-09
4.3805346e-09
4.6272336e-09
4.952819e-09
8.5322159e-08
1.1540723e-07
1.1994978e-07
9.5351615e-08
7.7548192e-08
6.4482112e-08
5.4710816e-08
6.2404869e-10
2.9788233e-09
4.8028488e-09
6.0560861e-09
6.7235357e-09
6.9868483e-09
7.0697841e-09
7.0408691e-09
6.945984e-09
6.8140882e-09
6.6618667e-09
6.4979889e-09
6.326779e-09
6.1620095e-09
6.0015716e-09
5.8305034e-09
5.6541636e-09
5.477917e-09
5.3056302e-09
5.1365349e-09
4.9727315e-09
4.8158215e-09
4.667398e-09
4.5282906e-09
4.3992816e-09
4.2813723e-09
4.1752073e-09
4.0814828e-09
4.001408e-09
3.9357863e-09
3.8862368e-09
3.854384e-09
3.842329e-09
3.8527518e-09
3.889004e-09
3.955304e-09
4.0568293e-09
4.1998787e-09
4.3891118e-09
4.6401197e-09
4.9708403e-09
8.8128478e-08
1.1775471e-07
1.192344e-07
9.5129012e-08
7.7514951e-08
6.4511074e-08
5.4745283e-08
4.4227858e-10
2.7335203e-09
4.4379649e-09
5.8475423e-09
6.6331122e-09
7.0028644e-09
7.1287704e-09
7.1244706e-09
7.039478e-09
6.9071683e-09
6.7485854e-09
6.5757699e-09
6.3950796e-09
6.209834e-09
6.0373457e-09
5.8642036e-09
5.6847576e-09
5.5037871e-09
5.3255967e-09
5.1543636e-09
4.9886659e-09
4.8301136e-09
4.680299e-09
4.5400023e-09
4.4099702e-09
4.2911683e-09
4.1842046e-09
4.0897584e-09
4.0090335e-09
3.9428327e-09
3.8928034e-09
3.8606003e-09
3.8483885e-09
3.8589423e-09
3.8957486e-09
3.9632166e-09
4.0667711e-09
4.2129512e-09
4.4065379e-09
4.6638613e-09
5.0024054e-09
9.2659559e-08
1.2148724e-07
1.1807777e-07
9.4714089e-08
7.7403669e-08
6.4516239e-08
5.4785922e-08
3.0255891e-10
2.5260471e-09
4.1702396e-09
5.5511052e-09
6.4788537e-09
6.9860608e-09
7.1616662e-09
7.1900315e-09
7.1228116e-09
6.996624e-09
6.8362837e-09
6.6573993e-09
6.4689412e-09
6.275665e-09
6.0803584e-09
5.9025082e-09
5.7210814e-09
5.5371579e-09
5.3548731e-09
5.1776666e-09
5.0097993e-09
4.8492699e-09
4.6977383e-09
4.5559657e-09
4.4246718e-09
4.3047859e-09
4.1968682e-09
4.1015675e-09
4.0200697e-09
3.9531708e-09
3.9025463e-09
3.8698856e-09
3.8574375e-09
3.8681011e-09
3.9055479e-09
3.9744454e-09
4.0805577e-09
4.230754e-09
4.4300171e-09
4.6956079e-09
5.0446393e-09
9.9952868e-08
1.2720469e-07
1.1636659e-07
9.4050934e-08
7.7193175e-08
6.4492166e-08
5.4833125e-08
1.9515394e-10
2.3547647e-09
3.9462097e-09
5.221526e-09
6.2984438e-09
6.8916893e-09
7.171659e-09
7.2404279e-09
7.1989394e-09
7.0860757e-09
6.9295622e-09
6.7482952e-09
6.5542423e-09
6.3541818e-09
6.1519501e-09
5.9505924e-09
5.7688659e-09
5.5829584e-09
5.3977199e-09
5.2168255e-09
5.0428679e-09
4.8798193e-09
4.7260438e-09
4.5822259e-09
4.4490768e-09
4.327499e-09
4.218012e-09
4.1212234e-09
4.0383127e-09
3.9700694e-09
3.9182118e-09
3.8844852e-09
3.871254e-09
3.8815896e-09
3.919414e-09
3.9897445e-09
4.0988033e-09
4.253927e-09
4.4604456e-09
4.7368004e-09
5.0998163e-09
1.1136705e-07
1.3566335e-07
1.1401538e-07
9.3081894e-08
7.685379e-08
6.442509e-08
5.4880875e-08
1.0671305e-10
2.2095197e-09
3.7464913e-09
4.9614628e-09
6.0494017e-09
6.7657984e-09
7.1666573e-09
7.287789e-09
7.2801823e-09
7.1878681e-09
7.0409176e-09
6.861028e-09
6.6632218e-09
6.4568446e-09
6.2474038e-09
6.0381614e-09
5.8352025e-09
5.6477118e-09
5.4592619e-09
5.2742137e-09
5.0957602e-09
4.92556e-09
4.7676541e-09
4.62028e-09
4.4837548e-09
4.3589868e-09
4.2464856e-09
4.1467977e-09
4.0611291e-09
3.990258e-09
3.9359647e-09
3.9000704e-09
3.8850896e-09
3.8943145e-09
3.9319883e-09
4.0035786e-09
4.115905e-09
4.2769359e-09
4.4925245e-09
4.7825588e-09
5.1636757e-09
1.2873077e-07
1.3410879e-07
1.1097658e-07
9.1742881e-08
7.633814e-08
6.4284186e-08
5.4909318e-08
4.7540899e-08
2.0324781e-09
3.5522597e-09
4.7455876e-09
5.7587289e-09
6.6359184e-09
7.11177e-09
7.3446205e-09
7.3759392e-09
7.3080804e-09
7.1735718e-09
6.9966788e-09
6.7952405e-09
6.5813719e-09
6.3627982e-09
6.1441198e-09
5.9281141e-09
5.7228281e-09
5.5305779e-09
5.340339e-09
5.1560021e-09
4.9794923e-09
4.8132975e-09
4.6600675e-09
4.5185012e-09
4.3889714e-09
4.2720346e-09
4.1681431e-09
4.0785728e-09
4.0040705e-09
3.9464846e-09
3.9077223e-09
3.8904688e-09
3.8982782e-09
3.9357871e-09
4.0090274e-09
4.1255895e-09
4.294274e-09
4.5216721e-09
4.8294478e-09
5.2342082e-09
1.2960374e-07
1.2700523e-07
1.0729426e-07
8.9993502e-08
7.5594662e-08
6.402722e-08
5.4887258e-08
4.7633682e-08
1.9486771e-09
3.4172395e-09
4.5623729e-09
5.5138427e-09
6.4010638e-09
6.9856849e-09
7.3014359e-09
7.3933622e-09
7.3549105e-09
7.239258e-09
7.072276e-09
6.8736246e-09
6.6575388e-09
6.4338764e-09
6.2088911e-09
5.9863716e-09
5.7688337e-09
5.5659615e-09
5.3736558e-09
5.1861188e-09
5.0055403e-09
4.8350101e-09
4.6757256e-09
4.5300693e-09
4.3971813e-09
4.2771386e-09
4.1702892e-09
4.0779725e-09
4.0008932e-09
3.9409702e-09
3.9002133e-09
3.8815176e-09
3.888765e-09
3.9270996e-09
4.0032896e-09
4.1259459e-09
4.3049751e-09
4.5480047e-09
4.8789012e-09
5.3144737e-09
1.1770839e-07
1.1960529e-07
1.0319568e-07
8.7901193e-08
7.4629627e-08
6.3644607e-08
5.4804738e-08
4.7709993e-08
1.887033e-09
3.3111928e-09
4.4108651e-09
5.3250521e-09
6.1430177e-09
6.84823e-09
7.2168972e-09
7.3942083e-09
7.3881095e-09
7.2948318e-09
7.1414954e-09
6.9491237e-09
6.7335279e-09
6.5064736e-09
6.2760892e-09
6.0472939e-09
5.8233212e-09
5.6060309e-09
5.4071628e-09
5.2169679e-09
5.032647e-09
4.8577986e-09
4.6939099e-09
4.5418975e-09
4.4047396e-09
4.2809194e-09
4.1704175e-09
4.0746894e-09
3.9943881e-09
3.9315239e-09
3.8882265e-09
3.8676413e-09
3.8740466e-09
3.9132231e-09
3.9928783e-09
4.1229485e-09
4.314834e-09
4.577631e-09
4.9378735e-09
5.4127738e-09
1.0778153e-07
1.1262853e-07
9.9051614e-08
8.5635953e-08
7.3506384e-08
6.3156453e-08
5.4668039e-08
4.7771889e-08
1.8452634e-09
3.2324068e-09
4.2949849e-09
5.1780895e-09
5.9416621e-09
6.6830911e-09
7.127761e-09
7.3602469e-09
7.408724e-09
7.3390653e-09
7.2014095e-09
7.0179338e-09
6.8054615e-09
6.5768774e-09
6.3416844e-09
6.1070008e-09
5.8768701e-09
5.6533586e-09
5.4383456e-09
5.2452171e-09
5.0570162e-09
4.8776665e-09
4.7089749e-09
4.5519835e-09
4.408239e-09
4.280099e-09
4.1652802e-09
4.0654315e-09
3.9811553e-09
3.9145951e-09
3.8680409e-09
3.8449448e-09
3.8500585e-09
3.8899539e-09
3.9735209e-09
4.1124018e-09
4.3199778e-09
4.6073376e-09
5.0041148e-09
5.5279249e-09
9.9863248e-08
1.0658798e-07
9.5213255e-08
8.3373855e-08
7.2285152e-08
6.2569689e-08
5.4466807e-08
4.7768389e-08
1.8271038e-09
3.181662e-09
4.2158976e-09
5.0733044e-09
5.8132082e-09
6.5203944e-09
7.042255e-09
7.307171e-09
7.4092072e-09
7.3606497e-09
7.2382095e-09
7.0642233e-09
6.856475e-09
6.6288856e-09
6.3918719e-09
6.1499652e-09
5.9115407e-09
5.6806156e-09
5.4595821e-09
5.2565674e-09
5.0665788e-09
4.8835396e-09
4.7101453e-09
4.5479162e-09
4.3987267e-09
4.264741e-09
4.1453172e-09
4.0410973e-09
3.9525955e-09
3.8820975e-09
3.8321314e-09
3.8063457e-09
3.8101597e-09
3.8510483e-09
3.9393442e-09
4.0888312e-09
4.315392e-09
4.6325191e-09
5.0730766e-09
5.6543501e-09
9.3972691e-08
1.0183125e-07
9.1966162e-08
8.1274485e-08
7.1022862e-08
6.1888258e-08
5.4187058e-08
1.0038196e-10
1.8985854e-09
3.1844165e-09
4.177246e-09
5.00556e-09
5.7209068e-09
6.3966683e-09
6.9445182e-09
7.2217367e-09
7.3509811e-09
7.3212084e-09
7.2115635e-09
7.0480931e-09
6.8438196e-09
6.6114736e-09
6.3688516e-09
6.1271677e-09
5.887673e-09
5.6538922e-09
5.4287848e-09
5.2190512e-09
5.0258833e-09
4.8422658e-09
4.6689192e-09
4.5064498e-09
4.3556917e-09
4.2190285e-09
4.0976072e-09
3.9914849e-09
3.9011665e-09
3.8289374e-09
3.7774787e-09
3.750399e-09
3.7537743e-09
3.7960389e-09
3.8891483e-09
4.0493989e-09
4.295488e-09
4.6431143e-09
5.1272958e-09
5.7619806e-09
9.0103815e-08
9.85425e-08
8.948818e-08
7.9438501e-08
6.9747712e-08
6.1104589e-08
5.3812181e-08
1.7773836e-10
1.9165927e-09
3.1807696e-09
4.1690079e-09
4.9973551e-09
5.7117262e-09
6.3779161e-09
6.941437e-09
7.2291848e-09
7.3723252e-09
7.3665073e-09
7.2673644e-09
7.1061607e-09
6.9077883e-09
6.6865008e-09
6.4472822e-09
6.202772e-09
5.9609865e-09
5.7244899e-09
5.4958728e-09
5.2773433e-09
5.0670396e-09
4.8769136e-09
4.6950849e-09
4.5256114e-09
4.3699151e-09
4.2275886e-09
4.0980382e-09
3.9849656e-09
3.8872606e-09
3.8079e-09
3.747096e-09
3.7100469e-09
3.7034842e-09
3.7379514e-09
3.8288021e-09
3.9967625e-09
4.2651119e-09
4.6534895e-09
5.199891e-09
5.9145474e-09
8.8233042e-08
9.6774053e-08
8.782842e-08
7.7872226e-08
6.8434994e-08
6.0191638e-08
5.332315e-08
2.8238076e-10
1.9578621e-09
3.2041851e-09
4.1961669e-09
5.0331698e-09
5.7521873e-09
6.423371e-09
6.9749437e-09
7.2623352e-09
7.4145493e-09
7.4198447e-09
7.3250805e-09
7.1729127e-09
6.9799381e-09
6.7635929e-09
6.5346032e-09
6.2962576e-09
6.0551242e-09
5.8149771e-09
5.5801157e-09
5.3555607e-09
5.1367878e-09
4.9295897e-09
4.7355107e-09
4.5566334e-09
4.3871062e-09
4.2318777e-09
4.088392e-09
3.9585349e-09
3.8468088e-09
3.7491949e-09
3.6776822e-09
3.6392732e-09
3.6398819e-09
3.6856575e-09
3.7867882e-09
3.9764727e-09
4.2815631e-09
4.725576e-09
5.3466522e-09
6.1427903e-09
8.8301687e-08
9.6480759e-08
8.6928353e-08
7.6489163e-08
6.7011768e-08
5.9115862e-08
5.271186e-08
4.1595798e-10
2.0262751e-09
3.2586682e-09
4.2594762e-09
5.1075571e-09
5.8349136e-09
6.5174913e-09
7.0351179e-09
7.3365108e-09
7.4853079e-09
7.4767096e-09
7.3861767e-09
7.2431187e-09
7.0631284e-09
6.8560206e-09
6.6304086e-09
6.3929724e-09
6.1501029e-09
5.9054876e-09
5.6632902e-09
5.4294217e-09
5.1967055e-09
4.9729725e-09
4.7579326e-09
4.5507047e-09
4.3571067e-09
4.1848247e-09
4.0335882e-09
3.9102976e-09
3.7928238e-09
3.7000731e-09
3.6364495e-09
3.6024551e-09
3.6041697e-09
3.6538781e-09
3.771431e-09
3.9865323e-09
4.3357726e-09
4.8503557e-09
5.5666195e-09
6.4617141e-09
9.0221828e-08
9.7524921e-08
8.6635067e-08
7.5122488e-08
6.5377975e-08
5.7855498e-08
5.1990312e-08
5.7819051e-10
2.1244806e-09
3.3451633e-09
4.3545211e-09
5.210159e-09
5.9451425e-09
6.6808332e-09
7.1653316e-09
7.424295e-09
7.5501146e-09
7.5329639e-09
7.4497714e-09
7.3161434e-09
7.143114e-09
6.9404316e-09
6.7162423e-09
6.4764893e-09
6.2257329e-09
5.9649237e-09
5.6932303e-09
5.4092101e-09
5.1133669e-09
4.8288013e-09
4.5845525e-09
4.3835516e-09
4.2190088e-09
4.0818619e-09
3.9692552e-09
3.8630135e-09
3.7669892e-09
3.6863059e-09
3.6244062e-09
3.587325e-09
3.5847044e-09
3.6319985e-09
3.7534685e-09
3.9861805e-09
4.3779739e-09
4.9682326e-09
5.7814018e-09
6.7553045e-09
9.390832e-08
9.9743308e-08
8.6745403e-08
7.3576451e-08
6.3459335e-08
5.6428847e-08
5.1198976e-08
7.6737252e-10
2.2533739e-09
3.4620563e-09
4.4722332e-09
5.353837e-09
6.1925487e-09
6.8662504e-09
7.2504954e-09
7.4724754e-09
7.5698947e-09
7.5702482e-09
7.4926776e-09
7.3600406e-09
7.180418e-09
6.9582047e-09
6.6920845e-09
6.3722987e-09
5.9811524e-09
5.5088164e-09
4.9469928e-09
3.7490566e-09
3.3037486e-09
3.8914639e-09
3.9648472e-09
3.8423771e-09
3.3612629e-09
2.7898475e-09
3.5966057e-09
3.5957686e-09
3.5665373e-09
3.5141057e-09
3.4638418e-09
3.4345192e-09
3.4348245e-09
3.4844719e-09
3.6125538e-09
3.8646002e-09
4.3009511e-09
4.9646296e-09
5.85173e-09
6.8360553e-09
9.9135238e-08
1.0290427e-07
8.6994763e-08
7.1673953e-08
6.1247497e-08
5.4903595e-08
5.0401137e-08
9.7840819e-10
2.4082757e-09
3.596877e-09
4.6435329e-09
5.5357477e-09
6.3341169e-09
6.8976718e-09
7.2062698e-09
7.3999766e-09
7.4866e-09
7.4721271e-09
7.3557849e-09
7.1254937e-09
6.7589574e-09
6.2340634e-09
5.5602691e-09
4.7021548e-09
3.2797316e-09
3.9740922e-09
4.3906496e-09
4.4789063e-09
4.472557e-09
4.401655e-09
4.2950645e-09
4.1698926e-09
4.0386519e-09
3.9139114e-09
3.7850939e-09
3.6695182e-09
3.5545731e-09
3.455788e-09
3.3727976e-09
3.3149668e-09
3.0845933e-09
3.3178559e-09
3.5309066e-09
3.824864e-09
4.322668e-09
5.086199e-09
6.0480348e-09
7.0102076e-09
1.0569471e-07
1.0681514e-07
8.7147234e-08
6.9356146e-08
5.8837792e-08
5.3390123e-08
4.9668531e-08
1.195553e-09
2.5651827e-09
3.772189e-09
4.7680151e-09
5.5775515e-09
6.196887e-09
6.6532236e-09
6.8871181e-09
6.9275518e-09
6.7596496e-09
6.3566739e-09
5.7503642e-09
5.0661192e-09
4.4101803e-09
3.5983096e-09
2.7085408e-09
3.4647564e-09
4.284994e-09
4.4705723e-09
4.5775559e-09
4.5491926e-09
4.4567773e-09
4.3414906e-09
4.2098388e-09
4.0744342e-09
3.9416451e-09
3.8113138e-09
3.6903378e-09
3.5766572e-09
3.4741933e-09
3.3874683e-09
3.3181861e-09
3.2729573e-09
3.2615605e-09
3.3040134e-09
3.4337368e-09
3.7036863e-09
4.1843871e-09
4.7425443e-09
5.2003813e-09
5.1055961e-09
1.1387974e-07
1.1192439e-07
8.7180662e-08
6.6785172e-08
5.6455623e-08
5.2062906e-08
4.9118042e-08
1.2880339e-09
2.5675814e-09
3.6189788e-09
4.3641068e-09
4.8473865e-09
5.0790665e-09
5.0554948e-09
4.7600645e-09
4.3230931e-09
3.9299998e-09
3.653147e-09
3.4038393e-09
3.0313286e-09
2.5581273e-09
2.5819369e-09
3.8068299e-09
4.2610135e-09
4.4721487e-09
4.5755854e-09
4.5359006e-09
4.453931e-09
4.3394158e-09
4.2084085e-09
4.0683674e-09
3.9320454e-09
3.8011275e-09
3.6712405e-09
3.5539042e-09
3.4410912e-09
3.3401021e-09
3.2540442e-09
3.1842136e-09
3.137162e-09
3.1234747e-09
3.1631032e-09
3.2988038e-09
3.6084756e-09
4.2262958e-09
5.1986804e-09
6.227112e-09
6.9209557e-09
1.3419144e-07
1.2665399e-07
9.07471e-08
6.5585598e-08
5.5080838e-08
5.1681765e-08
4.9424793e-08
4.6939881e-08
5.8359911e-10
1.1459163e-09
1.5582339e-09
1.8856996e-09
2.1594116e-09
2.3926329e-09
2.5869633e-09
2.7194733e-09
2.7607897e-09
2.7010062e-09
2.4719923e-09
2.1888567e-09
2.8195341e-09
3.8969974e-09
4.3145467e-09
4.5568257e-09
4.6709597e-09
4.6425598e-09
4.559169e-09
4.4413118e-09
4.3080358e-09
4.1630321e-09
4.0128838e-09
3.8709161e-09
3.7362739e-09
3.6015255e-09
3.4828886e-09
3.3664693e-09
3.2633252e-09
3.1753004e-09
3.1027336e-09
3.0518697e-09
3.0352266e-09
3.0724161e-09
3.2076775e-09
3.5404516e-09
4.2493343e-09
5.3579885e-09
6.3743559e-09
6.9160563e-09
1.5115333e-07
1.3694897e-07
9.1270754e-08
6.3342714e-08
5.3507668e-08
5.1312511e-08
4.9709257e-08
4.7576053e-08
1.9225575e-11
6.5595459e-10
1.1900588e-09
1.626564e-09
1.9693733e-09
2.2247264e-09
2.3890879e-09
2.452966e-09
2.388318e-09
2.182622e-09
2.1571556e-09
2.9361358e-09
3.9937296e-09
4.4465151e-09
4.7430573e-09
4.8891365e-09
4.8846509e-09
4.8147325e-09
4.6973852e-09
4.5550502e-09
4.4083826e-09
4.251454e-09
4.0904932e-09
3.9407125e-09
3.7994142e-09
3.6558152e-09
3.5327437e-09
3.4086913e-09
3.3004017e-09
3.2078811e-09
3.130681e-09
3.0757355e-09
3.0546288e-09
3.0921715e-09
3.2310926e-09
3.7209419e-09
4.8336244e-09
6.2420047e-09
7.2640395e-09
7.6062957e-09
1.6505633e-07
1.4332955e-07
8.917475e-08
6.0742591e-08
5.237781e-08
5.1652997e-08
5.0689932e-08
4.8855542e-08
5.1102023e-11
6.7283127e-10
1.1921584e-09
1.6081105e-09
1.9226884e-09
2.1434107e-09
2.2677202e-09
2.2878773e-09
2.2259335e-09
2.5736103e-09
6.7046363e-09
9.3039448e-09
1.0056622e-08
1.0514597e-08
1.085559e-08
1.1120799e-08
1.1311e-08
1.1404348e-08
1.1423672e-08
1.1323072e-08
1.117439e-08
1.0920471e-08
1.0591296e-08
1.0255404e-08
9.9118873e-09
9.5149937e-09
9.1950742e-09
8.8390179e-09
8.5473563e-09
8.3052161e-09
8.1130863e-09
7.9969822e-09
7.9920264e-09
8.1741307e-09
8.7065306e-09
1.3599117e-08
2.3719504e-08
3.1501536e-08
3.532082e-08
3.5114235e-08
1.7313468e-07
1.4973982e-07
8.7110882e-08
6.2688739e-08
5.9502276e-08
6.3564704e-08
6.4477e-08
6.2992871e-08
6.1023147e-08
7.0932523e-10
1.8035788e-09
1.0936859e-08
1.8424098e-08
3.1960749e-08
5.4187197e-08
8.6376939e-08
1.2890661e-07
1.8054834e-07
2.3902249e-07
3.0132017e-07
3.640932e-07
4.2287114e-07
4.2147103e-07
5.0702508e-07
5.2185161e-07
5.2110218e-07
5.1029262e-07
4.93874e-07
4.7272929e-07
4.4767789e-07
4.1980184e-07
3.9301774e-07
3.6744608e-07
3.4090267e-07
3.1958244e-07
2.9776192e-07
2.8011121e-07
2.6534131e-07
2.5326325e-07
2.4460261e-07
2.4019559e-07
2.4215693e-07
2.5560582e-07
3.3836524e-07
5.1940441e-07
6.7964354e-07
7.1967918e-07
6.8486688e-07
1.5366276e-07
1.5448718e-07
8.7964375e-08
1.0097348e-07
1.4184903e-07
1.9647681e-07
2.2675096e-07
1.733114e-08
3.685523e-08
6.8015235e-08
2.1926072e-07
5.4012818e-07
1.0739939e-06
1.7981409e-06
2.6184254e-06
3.4453151e-06
4.2471005e-06
5.0319097e-06
5.8122355e-06
6.5851267e-06
7.331334e-06
8.0275918e-06
8.6525235e-06
9.1932079e-06
9.6279419e-06
9.4709468e-06
9.2807681e-06
9.04413e-06
7.2584247e-06
7.9000978e-06
7.0350018e-06
6.3389782e-06
5.788012e-06
5.2979183e-06
4.8976524e-06
4.5226817e-06
4.2138757e-06
3.948316e-06
3.7221925e-06
3.5414312e-06
3.4111265e-06
3.3467872e-06
3.3821996e-06
3.803547e-06
4.6181943e-06
4.5992325e-06
4.4291932e-06
4.5975539e-06
1.3905505e-07
1.6014875e-07
1.1880825e-07
4.2724243e-07
9.1726662e-07
1.2443892e-07
2.3882587e-07
4.3803528e-07
6.6918158e-07
3.0583075e-07
4.9159602e-05
7.6828075e-05
0.00010620993
0.00013586576
0.00016142683
0.00018044921
0.00019249192
0.00019820655
0.00019858888
0.00019497775
0.00018865449
0.00018062621
0.00017167896
0.00016233532
0.00015267283
2.3539421e-06
5.9843274e-06
8.7268071e-06
1.0623205e-05
1.213668e-05
1.3251541e-05
1.385718e-05
1.3562983e-05
1.0826503e-05
9.0653738e-06
1.2297388e-05
1.3246348e-05
1.3102481e-05
1.267049e-05
1.2184334e-05
1.1662507e-05
1.1031368e-05
9.9473375e-06
5.3125483e-06
0.00012287358
0.0001915184
0.00019737639
0.00018337544
1.2792382e-07
1.7899873e-07
4.0419923e-07
2.7730899e-06
3.5879525e-07
1.8406593e-05
3.7612811e-05
7.0848222e-05
0.00011409501
0.00016470166
0.00021074
0.00025064013
0.0002910275
0.00034390923
0.00037785984
0.00039272523
0.00039711288
0.00039410936
0.00038614122
0.00037530504
0.00036331468
0.00035122102
0.00033952652
0.00032801877
0.00031614196
0.00030538415
0.00029035122
0.00027322184
0.00025936667
0.00024797506
0.00023959775
0.00023484736
0.00023143439
0.00022679581
0.00022666925
0.00022563601
0.00022923675
0.00023375577
0.00023815305
0.00024401705
0.0002528746
0.00026859727
0.00030035181
0.00036447814
0.00022876611
0.00022955473
0.00024117691
0.00022009048
1.2218052e-07
3.455463e-07
2.4039906e-06
1.5782029e-05
4.0700221e-05
8.1304755e-05
0.00013014032
0.00018482003
0.00023759727
0.00031611602
0.00036818171
0.00040712851
0.00043756844
0.00045853565
0.00047040679
0.00047537017
0.00047506226
0.00047138679
0.00046645138
0.00046149272
0.00045741808
0.00045484286
0.00045405865
0.00045460301
0.00045372528
0.00045164927
0.0004486315
0.00044739079
0.00044999636
0.00045273623
0.00045654119
0.00045541465
0.00044030981
0.00042702417
0.00043600604
0.00044717389
0.00046707637
0.00045833361
0.00041991574
0.00038685701
0.00035324961
0.00032202625
0.00029296386
0.00027864409
0.00030753654
0.00034757027
0.00035684521
0.00033737466
1.1577862e-07
1.4918758e-06
1.2753454e-05
4.7965304e-05
9.2508324e-05
0.00014983484
0.00021566791
0.00029092442
0.00034102652
0.00038054918
0.00041250729
0.00043585811
0.00045218971
0.00045722226
0.00044836818
0.00043881072
0.00043076303
0.00042675836
0.00042943714
0.00043839357
0.00045134689
0.00046712805
0.00048531088
0.00050452969
0.00050609958
0.00050743924
0.00051236816
0.0005213868
0.00053288195
0.00054369481
0.00055100803
0.00055852494
0.00053117151
0.0003935196
0.00039955671
0.00040588511
0.00044842014
0.00044134694
0.00043186409
0.00042233952
0.00041370786
0.00040699169
0.00040517454
0.00042233343
0.0004815315
0.00045774318
0.00046098938
0.00053286462
1.2520506e-07
6.7763819e-06
3.1407081e-05
7.7906033e-05
0.00013539811
0.000216776
0.00027607442
0.00032255224
0.00035717349
0.0003811056
0.00039784381
0.00039448164
0.0003880524
0.00038386808
0.00038133174
0.00038125038
0.00038609637
0.00039642362
0.00040205759
0.00040588659
0.00041186631
0.00041770878
0.00041743036
0.000396725
0.00031047128
0.0002791378
0.00028145442
0.00028975164
0.00030062041
0.00031285347
0.00032918754
0.00038812005
0.00047795224
0.00058094346
0.00060845709
0.00061604269
0.00061976177
0.0006236797
0.00062533514
0.00062585706
0.00062642509
0.00062859731
0.00063639427
0.00066504558
0.00071195162
0.00045797052
0.00046641081
0.00079836355
1.8683598e-07
1.4128e-05
4.2374267e-05
9.9228732e-05
0.00017533093
0.000237972
0.00028437771
0.00031466612
0.00033397982
0.00034372392
0.00034220095
0.00033518352
0.00032505416
0.00030975931
0.00028887669
0.00026571769
0.00024262311
0.00022278829
0.00021256393
0.00021210716
0.00021698622
0.00022422755
0.00023281782
0.00024237808
0.00025300976
0.0002636645
0.00027523142
0.00029510061
0.00033504545
0.00038292527
0.00045934986
0.00053908931
0.00058741829
0.00063498351
0.00065839391
0.00067602328
0.00069118087
0.00070411315
0.00071506403
0.0007245542
0.00073326023
0.00074232477
0.00075469418
0.00077605071
0.00072939003
0.00050137426
0.00051264465
0.00084112028
3.5855279e-07
1.6549917e-05
4.6820414e-05
0.00011616718
0.00018321456
0.00023060549
0.0002588115
0.00026950138
0.00027011634
0.00026244051
0.00024791961
0.0002284443
0.0002057969
0.00018527769
0.00017299166
0.00016824196
0.00016834448
0.00017141187
0.00017646796
0.00018301141
0.00019084277
0.00019996617
0.00021036662
0.00022211944
0.00023645917
0.00025112303
0.00026636878
0.00028745633
0.0003190019
0.00035761124
0.00041927239
0.00048961087
0.00054387524
0.00061335916
0.00066633806
0.00070236013
0.00073370656
0.00075208425
0.00076678808
0.00077823381
0.00078817536
0.00079827099
0.00081132061
0.00082776808
0.00056445996
0.00051716996
0.00053237614
0.00078755779
4.0944009e-07
1.6113125e-05
3.7784895e-05
0.00010771713
0.00016442293
0.00018400555
0.00019129338
0.00019088756
0.00018439754
0.0001733538
0.00016028254
0.00014876573
0.0001408818
0.00013674065
0.00013577904
0.000137583
0.00014163504
0.00014732082
0.00015401537
0.00016164386
0.0001702231
0.00017994405
0.0001906274
0.00020203557
0.00021428536
0.00022709971
0.00024055831
0.00025552167
0.00027288235
0.00029334075
0.00032547949
0.00037161117
0.00041434123
0.00047453875
0.00052434348
0.00057237739
0.00062497073
0.0006632676
0.00070061624
0.00073336118
0.00076056123
0.00078223034
0.00079582515
0.00075884714
0.000499988
0.00049905989
0.00051125713
0.00062994503
4.1500248e-07
1.4903499e-05
3.545937e-05
6.8292337e-05
0.00011188396
0.00012369308
0.00012854858
0.00012726882
0.00012305562
0.00011849257
0.00011489008
0.00011275816
0.00011203458
0.00011240964
0.00011385258
0.00011654676
0.0001205151
0.00012558873
0.00013151044
0.00013852519
0.00014655488
0.00015578296
0.0001658291
0.00017635726
0.00018727965
0.00019874452
0.00021090823
0.00022383004
0.00023758391
0.00025175192
0.00026739154
0.00028605928
0.00030696346
0.00033437833
0.00036296309
0.00039412144
0.00043149744
0.00046149225
0.0004933358
0.00052380327
0.00055152868
0.00057528046
0.00058830411
0.00053000945
0.00044525869
0.00045906152
0.00048078047
0.0005094168
3.7358605e-07
1.1884582e-05
3.2776458e-05
5.5190716e-05
7.7235643e-05
8.7933131e-05
9.1124261e-05
9.0584758e-05
8.903445e-05
8.7991605e-05
8.7606662e-05
8.7887409e-05
8.8849698e-05
9.0319133e-05
9.2489214e-05
9.5532207e-05
9.9415265e-05
0.00010407566
0.00010940834
0.00011583945
0.00012324142
0.00013184796
0.00014105703
0.00015062606
0.00016057453
0.00017109184
0.00018233618
0.00019443156
0.00020750913
0.00022077152
0.00023471057
0.00024934081
0.00026476212
0.00027998989
0.00029510292
0.00030996043
0.00032450315
0.00033807422
0.00035156756
0.00036512148
0.00037888729
0.00039249519
0.00040336925
0.00039340395
0.00040017506
0.00042561561
0.00045113729
0.00047116503
2.2773195e-07
9.9199046e-06
2.6735216e-05
4.3227978e-05
5.7549487e-05
6.3638928e-05
6.4253931e-05
6.331662e-05
6.2521945e-05
6.2611056e-05
6.3074653e-05
6.4085716e-05
6.5622976e-05
6.7450754e-05
6.9970376e-05
7.3222954e-05
7.7099278e-05
8.1569202e-05
8.6586786e-05
9.285191e-05
9.9875378e-05
0.00010803155
0.00011650311
0.00012520846
0.00013429743
0.00014396962
0.00015437654
0.00016566764
0.0001780064
0.00019040061
0.00020396037
0.00021847493
0.00023344517
0.00024802445
0.00026192879
0.00027500024
0.00028657873
0.00029715817
0.00030647734
0.00031476749
0.00032246491
0.0003299434
0.00033810643
0.00034833185
0.00036698152
0.00039268602
0.00041594232
0.00043645035
1.6988023e-07
7.4446364e-06
1.98225e-05
2.9827013e-05
3.7049647e-05
4.0252691e-05
3.9572877e-05
3.8785498e-05
3.8577663e-05
3.9396946e-05
4.0367936e-05
4.180451e-05
4.3621246e-05
4.5532828e-05
4.8053954e-05
5.11601e-05
5.4742418e-05
5.8781027e-05
6.3260051e-05
6.90054e-05
7.5275254e-05
8.2694697e-05
9.0142935e-05
9.7802132e-05
0.00010591101
0.00011466628
0.00012415394
0.00013450745
0.000145839
0.00015698693
0.00016978774
0.00018359801
0.00019776948
0.00021185695
0.00022536227
0.00023839035
0.00025026766
0.00026103395
0.00027050661
0.00027886733
0.00028649989
0.00029371192
0.00030155513
0.00031203161
0.00032692494
0.00034833538
0.00036177081
0.00038505304
1.0498474e-07
4.1317893e-06
1.1172714e-05
1.6391206e-05
1.9514346e-05
2.0230813e-05
1.9374404e-05
1.908139e-05
1.9301987e-05
2.062062e-05
2.1636013e-05
2.29799e-05
2.454682e-05
2.6056162e-05
2.8092383e-05
3.0599877e-05
3.3504485e-05
3.6754169e-05
4.0332556e-05
4.5316094e-05
5.0448872e-05
5.6753117e-05
6.2913544e-05
6.9317674e-05
7.6219278e-05
8.3807345e-05
9.2089179e-05
0.00010115317
0.00011105047
0.00012033844
0.00013159872
0.00014370581