/*--------------------------------*- C++ -*----------------------------------*\
| =========                 |                                                 |
| \\      /  F ield         | OpenFOAM: The Open Source CFD Toolbox           |
|  \\    /   O peration     | Version:  2212                                  |
|   \\  /    A nd           | Website:  www.openfoam.com                      |
|    \\/     M anipulation  |                                                 |
\*---------------------------------------------------------------------------*/
FoamFile
{
    version     2.0;
    format      ascii;
    arch        "LSB;label=32;scalar=64";
    class       volVectorField;
    location    "0";
    object      C;
}
// * * * * * * * * * * * * * * * * * * * * * * * * * * * * * * * * * * * * * //

dimensions      [0 1 0 0 0 0 0];

internalField   nonuniform List<vector> 
18080
(
(-0.193997 -3.63943e-23 0.000187377)
(-0.18883 0 0.000190828)
(-0.183572 -1.31973e-22 0.000194676)
(-0.178233 0 0.000198791)
(-0.172826 0 0.000202723)
(-0.167358 0 0.000206113)
(-0.161841 0 0.000208884)
(-0.156286 -8.08131e-23 0.000210988)
(-0.150706 1.57231e-22 0.000212396)
(-0.145111 5.14126e-23 0.000213097)
(-0.139515 0 0.000213099)
(-0.133929 0 0.000212422)
(-0.128366 0 0.0002111)
(-0.122838 8.13628e-23 0.000209177)
(-0.117356 -2.80392e-23 0.000206708)
(-0.111931 -1.20367e-22 0.000203757)
(-0.106576 6.12118e-23 0.000200391)
(-0.101298 -3.22794e-23 0.000196684)
(-0.0961088 -7.0262e-23 0.000192715)
(-0.0910165 -3.64774e-23 0.000188561)
(-0.0860293 7.80573e-23 0.000184305)
(-0.0811544 -1.71184e-22 0.000180024)
(-0.0763986 6.94225e-23 0.000175796)
(-0.0717674 -2.42908e-23 0.000171693)
(-0.0672659 -5.41887e-23 0.000167783)
(-0.062898 0 0.000164128)
(-0.0586671 6.26084e-23 0.000160782)
(-0.0545758 0 0.000157792)
(-0.0506256 3.50096e-23 0.000155206)
(-0.0468179 0 0.000153054)
(-0.043153 3.97424e-23 0.000151349)
(-0.0396305 0 0.00015011)
(-0.0362497 1.12543e-22 0.000149346)
(-0.0330094 4.6443e-23 0.000149049)
(-0.0299075 -1.00401e-22 0.000149212)
(-0.026942 5.37969e-23 0.000149819)
(-0.02411 5.19725e-23 0.000150843)
(-0.0214086 0 0.000152264)
(-0.0188346 0 0.000154045)
(-0.0163845 0 0.000156152)
(-0.0140545 0 0.000158549)
(-0.0118407 5.83494e-23 0.0001612)
(-0.00973927 5.93598e-23 0.000164068)
(-0.00774606 3.01712e-23 0.000167117)
(-0.0058571 -3.06751e-23 0.000170274)
(-0.00406839 3.1243e-23 0.000173399)
(-0.00237549 3.36476e-23 0.000176398)
(-0.000774331 0 0.000179267)
(-0.193998 -7.36412e-25 0.000482561)
(-0.188831 -1.45027e-24 0.000491028)
(-0.183573 1.9739e-22 0.00050047)
(-0.178234 -1.27131e-23 0.000510555)
(-0.172826 5.90632e-22 0.000520134)
(-0.167358 3.39612e-22 0.000528298)
(-0.16184 -2.32819e-22 0.00053486)
(-0.156285 -2.16844e-23 0.000539708)
(-0.150704 1.58388e-23 0.000542778)
(-0.145109 6.24699e-22 0.000544055)
(-0.139512 -4.49647e-22 0.00054356)
(-0.133927 1.09657e-23 0.000541354)
(-0.128364 -5.48145e-22 0.000537526)
(-0.122836 -3.29897e-22 0.000532194)
(-0.117355 1.11814e-22 0.000525502)
(-0.111931 7.55679e-25 0.000517608)
(-0.106576 2.52968e-22 0.00050869)
(-0.101299 -3.4722e-22 0.000498934)
(-0.0961109 2.87223e-22 0.000488536)
(-0.0910196 -1.21577e-23 0.000477697)
(-0.0860333 -2.6164e-22 0.000466618)
(-0.0811594 2.2884e-23 0.000455498)
(-0.0764044 8.30272e-23 0.00044453)
(-0.071774 4.9109e-24 0.000433896)
(-0.0672731 -4.45031e-23 0.000423763)
(-0.0629058 5.26387e-23 0.000414285)
(-0.0586753 -1.74427e-22 0.000405599)
(-0.0545841 -8.30098e-23 0.000397819)
(-0.050634 -7.09844e-23 0.000391064)
(-0.0468262 3.14684e-22 0.000385411)
(-0.0431611 -1.68911e-22 0.000380888)
(-0.0396383 -1.89187e-23 0.000377541)
(-0.036257 4.0037e-23 0.000375397)
(-0.0330162 -1.08341e-22 0.000374427)
(-0.0299136 1.12662e-22 0.00037462)
(-0.0269475 9.93033e-23 0.000375931)
(-0.0241148 9.26693e-23 0.000378293)
(-0.0214128 -1.74068e-22 0.000381654)
(-0.0188381 1.11619e-22 0.000385923)
(-0.0163873 -7.38536e-23 0.000391014)
(-0.0140567 1.75529e-22 0.000396835)
(-0.0118424 5.1591e-23 0.000403296)
(-0.00974052 -5.79986e-23 0.000410307)
(-0.00774692 -1.73414e-22 0.000417775)
(-0.00585766 -6.11313e-23 0.00042552)
(-0.00406873 7.01392e-24 0.000433189)
(-0.00237569 -5.41302e-23 0.000440549)
(-0.000774455 2.17959e-22 0.000447589)
(-0.193999 -1.0924e-22 0.000883551)
(-0.188832 1.7639e-24 0.000898152)
(-0.183574 -2.62517e-22 0.000914435)
(-0.178234 -1.05688e-21 0.000931794)
(-0.172826 5.66911e-22 0.000948153)
(-0.167357 -2.23208e-22 0.000961879)
(-0.161839 -4.34751e-22 0.000972656)
(-0.156283 5.12412e-22 0.000980306)
(-0.150701 5.44926e-22 0.000984734)
(-0.145106 -9.18123e-22 0.000985928)
(-0.139509 1.63346e-22 0.000983946)
(-0.133923 -5.10611e-22 0.000978908)
(-0.128361 7.54832e-22 0.000970988)
(-0.122833 -4.01358e-22 0.000960408)
(-0.117353 -2.0142e-22 0.000947431)
(-0.11193 4.3862e-22 0.000932349)
(-0.106576 0 0.000915481)
(-0.101301 0 0.000897164)
(-0.0961135 2.02267e-23 0.00087775)
(-0.0910234 -3.79096e-24 0.000857595)
(-0.0860384 -4.94616e-22 0.000837058)
(-0.0811657 -4.66357e-22 0.000816494)
(-0.0764118 -4.69403e-22 0.000796241)
(-0.0717824 2.65646e-23 0.000776621)
(-0.0672823 -1.07032e-22 0.00075793)
(-0.0629157 -1.66164e-22 0.000740437)
(-0.0586856 6.50173e-23 0.000724382)
(-0.0545948 -2.50026e-23 0.000709966)
(-0.0506448 1.2021e-23 0.000697394)
(-0.0468368 -5.74812e-22 0.000686801)
(-0.0431714 -8.65199e-24 0.000678235)
(-0.0396481 -1.71935e-22 0.000671774)
(-0.0362663 3.35484e-22 0.000667462)
(-0.0330248 -1.49152e-22 0.000665249)
(-0.0299215 1.58167e-23 0.00066511)
(-0.0269544 -9.50502e-23 0.000666966)
(-0.0241209 -1.82001e-24 0.000670696)
(-0.021418 -3.7358e-24 0.000676207)
(-0.0188425 1.03565e-23 0.000683337)
(-0.0163909 -2.43869e-23 0.000691933)
(-0.0140595 1.20118e-22 0.000701833)
(-0.0118446 2.39998e-22 0.000712875)
(-0.00974208 -8.11764e-23 0.000724901)
(-0.007748 1.43179e-23 0.000737746)
(-0.00585836 -1.05072e-22 0.000751093)
(-0.00406915 1.91584e-24 0.000764318)
(-0.00237593 5.0351e-22 0.000777009)
(-0.000774604 -1.55304e-22 0.000789148)
(-0.194001 4.78315e-22 0.00139497)
(-0.188833 4.51199e-22 0.00141648)
(-0.183575 -1.73228e-22 0.00144046)
(-0.178235 -3.80219e-24 0.00146598)
(-0.172826 8.31465e-22 0.00148979)
(-0.167356 -3.04563e-22 0.00150937)
(-0.161837 -3.68738e-22 0.00152427)
(-0.15628 2.13152e-23 0.00153425)
(-0.150698 3.25981e-23 0.0015392)
(-0.145102 4.04751e-24 0.00153913)
(-0.139505 3.78391e-22 0.00153415)
(-0.133919 0 0.00152449)
(-0.128357 -1.90903e-22 0.00151043)
(-0.12283 4.64556e-23 0.00149233)
(-0.11735 2.05811e-22 0.0014706)
(-0.111929 2.37787e-22 0.00144571)
(-0.106576 1.18413e-22 0.00141816)
(-0.101302 -2.57723e-23 0.00138846)
(-0.0961165 -2.60584e-22 0.00135717)
(-0.091028 -4.93393e-22 0.00132482)
(-0.0860444 -2.77507e-22 0.00129196)
(-0.0811732 3.4138e-22 0.00125914)
(-0.0764206 1.4837e-24 0.00122688)
(-0.0717924 5.21651e-23 0.00119565)
(-0.0672933 -3.99989e-24 0.0011659)
(-0.0629274 -2.19652e-22 0.00113804)
(-0.0586979 5.75719e-23 0.00111244)
(-0.0546074 -6.36143e-22 0.00108938)
(-0.0506575 -1.39394e-22 0.00106919)
(-0.0468494 1.75957e-22 0.00105205)
(-0.0431836 3.29192e-22 0.00103804)
(-0.0396599 -5.62965e-22 0.00102727)
(-0.0362774 -3.65233e-22 0.0010198)
(-0.033035 2.17186e-22 0.00101556)
(-0.0299307 -2.46854e-23 0.0010145)
(-0.0269627 -4.65688e-22 0.00101649)
(-0.0241281 2.19501e-22 0.00102137)
(-0.0214242 2.52425e-22 0.00102897)
(-0.0188477 5.2394e-22 0.00103905)
(-0.0163951 -1.31871e-23 0.00105138)
(-0.0140629 -2.88269e-23 0.00106571)
(-0.0118471 -2.54733e-22 0.0010818)
(-0.00974393 -2.85616e-22 0.0010994)
(-0.00774927 -5.45059e-22 0.00111826)
(-0.00585918 2.67496e-22 0.0011379)
(-0.00406963 2.77487e-22 0.00115738)
(-0.0023762 3.90593e-24 0.00117608)
(-0.000774774 -1.90198e-22 0.00119396)
(-0.194002 -5.37732e-22 0.00204107)
(-0.188835 -5.24512e-22 0.00207019)
(-0.183576 5.51585e-22 0.00210267)
(-0.178235 -1.32964e-22 0.00213712)
(-0.172825 4.71076e-22 0.00216887)
(-0.167354 8.14734e-22 0.00219433)
(-0.161834 7.58297e-22 0.00221291)
(-0.156276 1.21506e-21 0.00222431)
(-0.150693 4.97969e-22 0.00222843)
(-0.145096 9.23291e-24 0.00222534)
(-0.139499 -4.08386e-22 0.00221525)
(-0.133914 5.01232e-22 0.00219851)
(-0.128352 -8.95583e-22 0.00217556)
(-0.122826 -1.45344e-21 0.00214693)
(-0.117347 5.19032e-22 0.00211326)
(-0.111927 -1.01889e-21 0.00207519)
(-0.106576 3.89771e-23 0.00203347)
(-0.101304 -5.27216e-23 0.00198884)
(-0.0961199 -4.73537e-23 0.00194206)
(-0.0910332 -8.299e-24 0.00189392)
(-0.0860515 -3.40975e-22 0.0018452)
(-0.081182 6.84632e-22 0.00179664)
(-0.076431 9.04607e-22 0.00174898)
(-0.0718042 -1.07481e-25 0.0017029)
(-0.0673062 5.88544e-22 0.00165902)
(-0.0629412 -5.18115e-22 0.0016179)
(-0.0587124 2.88656e-22 0.00158004)
(-0.0546223 7.84643e-23 0.00154585)
(-0.0506725 6.91152e-22 0.00151577)
(-0.0468642 -3.53852e-22 0.00149007)
(-0.043198 -7.72156e-22 0.00146882)
(-0.0396736 -2.8086e-22 0.0014522)
(-0.0362903 -2.73191e-22 0.00144027)
(-0.0330469 -4.87296e-22 0.00143291)
(-0.0299416 -4.72939e-22 0.00143008)
(-0.0269724 7.09688e-23 0.00143158)
(-0.0241366 2.86636e-22 0.00143715)
(-0.0214315 9.15776e-22 0.0014466)
(-0.0188537 3.39707e-22 0.00145956)
(-0.0164001 0 0.00147571)
(-0.0140668 -6.2436e-22 0.0014947)
(-0.0118501 -2.99869e-23 0.00151618)
(-0.00974607 6.30739e-22 0.00153981)
(-0.00775074 3.85895e-22 0.00156524)
(-0.00586012 7.14141e-22 0.00159181)
(-0.00407019 4.21098e-24 0.00161818)
(-0.00237652 -3.65237e-23 0.00164348)
(-0.000774966 -3.80235e-22 0.00166768)
(-0.194003 5.78237e-22 0.0028527)
(-0.188836 -6.65357e-22 0.00289003)
(-0.183576 5.24309e-22 0.00293166)
(-0.178235 6.52449e-22 0.00297568)
(-0.172824 -5.0235e-22 0.00301566)
(-0.167352 -2.74518e-25 0.00304668)
(-0.16183 2.65776e-25 0.00306802)
(-0.156271 -1.40054e-21 0.00307936)
(-0.150687 2.00921e-22 0.00308066)
(-0.14509 -4.36957e-23 0.00307207)
(-0.139492 9.6291e-22 0.00305395)
(-0.133907 4.95579e-22 0.00302682)
(-0.128346 -1.0818e-22 0.00299133)
(-0.122821 1.11643e-21 0.00294827)
(-0.117343 2.26706e-21 0.00289849)
(-0.111925 1.89232e-21 0.00284295)
(-0.106576 3.37124e-23 0.00278262)
(-0.101305 1.29402e-21 0.00271854)
(-0.0961238 4.4498e-23 0.00265176)
(-0.0910393 1.84011e-25 0.00258332)
(-0.0860597 -1.28607e-21 0.00251428)
(-0.0811922 -9.00433e-22 0.00244565)
(-0.0764431 -8.71101e-24 0.0023784)
(-0.0718179 6.7202e-22 0.00231344)
(-0.0673213 8.53408e-24 0.00225159)
(-0.0629574 7.6023e-22 0.00219359)
(-0.0587294 -2.21636e-24 0.00214012)
(-0.0546396 -3.50886e-22 0.0020917)
(-0.0506899 -4.32778e-23 0.0020489)
(-0.0468815 -4.41396e-22 0.00201207)
(-0.0432148 -1.10285e-21 0.00198131)
(-0.0396896 -1.33658e-21 0.00195683)
(-0.0363054 -4.52941e-22 0.00193871)
(-0.0330608 1.27499e-23 0.0019268)
(-0.0299542 -1.92593e-21 0.001921)
(-0.0269836 1.28961e-21 0.00192106)
(-0.0241464 1.1119e-21 0.00192663)
(-0.0214399 -1.26696e-23 0.00193743)
(-0.0188608 -9.1927e-22 0.00195298)
(-0.0164058 -4.56843e-23 0.00197284)
(-0.0140713 -8.08111e-22 0.00199654)
(-0.0118535 3.78129e-22 0.00202362)
(-0.00974855 -5.86939e-23 0.00205362)
(-0.00775244 8.93291e-22 0.00208607)
(-0.00586121 -4.80692e-22 0.00212008)
(-0.00407084 8.19427e-23 0.00215388)
(-0.00237687 9.47593e-22 0.00218631)
(-0.000775181 -1.01805e-21 0.00221733)
(-0.194005 -8.03474e-24 0.00386636)
(-0.188837 6.50084e-22 0.00391234)
(-0.183577 -9.6779e-23 0.00396361)
(-0.178235 -1.33109e-21 0.00401762)
(-0.172822 8.284e-24 0.00406576)
(-0.167348 9.80095e-23 0.00410155)
(-0.161825 2.02238e-21 0.00412414)
(-0.156264 3.63882e-21 0.00413324)
(-0.150679 -1.72908e-25 0.00412888)
(-0.145081 -1.23259e-21 0.00411138)
(-0.139483 1.35963e-22 0.0040813)
(-0.133898 -1.80121e-21 0.00403942)
(-0.128338 -4.88714e-22 0.00398666)
(-0.122814 -1.27966e-22 0.0039241)
(-0.117339 -8.56875e-24 0.00385294)
(-0.111922 1.60831e-22 0.00377443)
(-0.106575 -8.84918e-22 0.0036899)
(-0.101307 -8.45633e-22 0.00360073)
(-0.0961282 1.86453e-22 0.00350828)
(-0.0910463 -1.34348e-21 0.00341395)
(-0.0860693 -2.0729e-21 0.00331909)
(-0.0812042 -4.88077e-22 0.00322502)
(-0.0764572 -1.03883e-22 0.003133)
(-0.0718339 -2.03111e-22 0.00304419)
(-0.0673389 -1.97113e-21 0.00295965)
(-0.0629762 -1.68173e-21 0.00288034)
(-0.058749 1.39281e-22 0.00280708)
(-0.0546598 -1.4713e-22 0.00274058)
(-0.0507102 -7.98156e-24 0.00268153)
(-0.0469015 -3.61573e-23 0.00263037)
(-0.0432342 -8.92591e-23 0.00258723)
(-0.0397082 -1.71587e-21 0.00255233)
(-0.0363228 -1.44385e-21 0.00252581)
(-0.0330769 -7.77516e-22 0.00250742)
(-0.0299688 2.09172e-21 0.00249704)
(-0.0269966 -1.22871e-21 0.00249433)
(-0.0241578 -1.37734e-21 0.00249883)
(-0.0214495 1.48837e-21 0.00251017)
(-0.0188689 -1.58555e-21 0.00252773)
(-0.0164123 5.43896e-22 0.00255094)
(-0.0140764 -2.51189e-22 0.00257917)
(-0.0118574 1.6004e-21 0.00261184)
(-0.00975139 4.11355e-22 0.00264835)
(-0.00775438 1.8093e-21 0.00268809)
(-0.00586245 -3.23105e-22 0.00272991)
(-0.00407157 6.82608e-22 0.00277153)
(-0.00237727 4.578e-22 0.00281148)
(-0.000775423 7.29131e-22 0.00284967)
(-0.194006 0 0.00512378)
(-0.188838 3.32364e-21 0.0051786)
(-0.183577 2.43421e-21 0.00523974)
(-0.178234 -1.21963e-22 0.00530381)
(-0.17282 1.72669e-23 0.00535961)
(-0.167344 -3.97451e-21 0.00539875)
(-0.161818 -1.3245e-21 0.00542031)
(-0.156256 -2.06534e-21 0.00542404)
(-0.150669 2.67107e-21 0.00541016)
(-0.145071 7.95758e-22 0.00537922)
(-0.139473 9.78811e-22 0.00533205)
(-0.133888 3.36376e-22 0.00526978)
(-0.128329 3.29322e-22 0.00519369)
(-0.122806 -7.81387e-22 0.00510524)
(-0.117333 -1.76831e-23 0.00500602)
(-0.111918 7.54288e-22 0.0048977)
(-0.106574 -1.70184e-22 0.00478203)
(-0.101309 1.07887e-21 0.00466077)
(-0.0961332 -1.12067e-22 0.0045357)
(-0.0910544 -1.97023e-21 0.0044086)
(-0.0860803 1.38105e-21 0.00428118)
(-0.0812179 6.44438e-22 0.00415512)
(-0.0764735 -8.4135e-22 0.00403201)
(-0.0718524 -7.49162e-22 0.00391331)
(-0.0673592 -7.39561e-22 0.00380033)
(-0.0629979 -1.25826e-21 0.00369428)
(-0.0587717 -1.04638e-22 0.00359617)
(-0.054683 -2.75276e-23 0.00350686)
(-0.0507335 -1.5071e-21 0.00342723)
(-0.0469245 8.90909e-24 0.00335779)
(-0.0432565 -1.76504e-23 0.00329868)
(-0.0397295 2.43245e-21 0.00325018)
(-0.0363427 1.03021e-22 0.00321241)
(-0.0330953 -2.65918e-21 0.00318507)
(-0.0299855 7.40235e-22 0.00316797)
(-0.0270115 -1.79218e-22 0.00316069)
(-0.0241707 -6.03509e-22 0.00316262)
(-0.0214606 -1.24094e-21 0.00317328)
(-0.0188781 1.30693e-21 0.0031919)
(-0.0164198 7.09898e-23 0.00321772)
(-0.0140823 5.24364e-22 0.00325)
(-0.0118619 7.37439e-22 0.00328795)
(-0.00975462 6.27404e-22 0.00333083)
(-0.00775659 8.93971e-22 0.00337788)
(-0.00586385 7.64578e-22 0.00342764)
(-0.00407239 -8.82364e-24 0.00347726)
(-0.00237773 -2.32943e-21 0.00352488)
(-0.000775694 1.15271e-22 0.0035704)
(-0.194008 2.30746e-21 0.00667078)
(-0.188839 1.50556e-21 0.00673429)
(-0.183577 -7.50937e-22 0.00680512)
(-0.178232 1.20167e-21 0.0068789)
(-0.172816 -2.49182e-22 0.00694126)
(-0.167338 1.70409e-23 0.00698157)
(-0.16181 2.43292e-22 0.00699885)
(-0.156246 8.58827e-22 0.00699302)
(-0.150657 1.4283e-21 0.00696453)
(-0.145058 3.90469e-21 0.00691426)
(-0.13946 -2.31616e-21 0.00684347)
(-0.133875 -2.4183e-21 0.00675369)
(-0.128317 0 0.00664668)
(-0.122797 -2.20442e-21 0.00652438)
(-0.117325 -2.78197e-25 0.0063889)
(-0.111914 3.84478e-21 0.00624238)
(-0.106573 1.54715e-21 0.00608708)
(-0.101311 -2.95924e-21 0.00592525)
(-0.0961389 4.06829e-21 0.00575913)
(-0.0910636 -7.28889e-23 0.00559094)
(-0.0860929 -2.14021e-21 0.00542285)
(-0.0812338 -3.40148e-22 0.00525694)
(-0.0764922 -9.07505e-23 0.00509516)
(-0.0718736 -1.23373e-21 0.00493931)
(-0.0673825 1.54948e-21 0.00479101)
(-0.0630228 1.17715e-21 0.00465171)
(-0.0587976 -1.77879e-23 0.00452266)
(-0.0547095 -1.23906e-22 0.00440488)
(-0.0507601 -2.97911e-21 0.00429941)
(-0.0469507 -9.16707e-22 0.00420689)
(-0.0432819 -3.02052e-22 0.00412744)
(-0.0397537 -7.80245e-23 0.00406138)
(-0.0363654 2.8669e-21 0.00400885)
(-0.0331162 -1.07695e-22 0.00396942)
(-0.0300044 1.50496e-21 0.00394286)
(-0.0270283 0 0.00392862)
(-0.0241854 2.95741e-22 0.00392595)
(-0.0214731 -1.74854e-23 0.00393422)
(-0.0188885 1.67252e-22 0.00395247)
(-0.0164283 -2.51482e-21 0.00397977)
(-0.014089 -1.13506e-21 0.00401516)
(-0.0118669 -1.01824e-21 0.00405771)
(-0.00975826 1.17945e-21 0.00410647)
(-0.00775907 -1.93e-21 0.00416049)
(-0.00586544 2.53574e-21 0.004218)
(-0.00407332 -2.31759e-21 0.00427548)
(-0.00237823 1.70682e-22 0.00433065)
(-0.000775996 -6.44134e-22 0.00438337)
(-0.194009 1.05494e-22 0.00855497)
(-0.18884 -2.41287e-22 0.00862659)
(-0.183577 3.41134e-23 0.00870646)
(-0.17823 -1.45354e-21 0.00878903)
(-0.172811 -1.2347e-21 0.00885614)
(-0.16733 1.09388e-22 0.00889451)
(-0.1618 -1.39288e-21 0.00890317)
(-0.156233 9.95084e-21 0.00888231)
(-0.150643 -3.47959e-23 0.00883274)
(-0.145042 6.30989e-21 0.00875581)
(-0.139444 -3.85106e-21 0.00865327)
(-0.13386 -3.51478e-23 0.00852724)
(-0.128303 -3.06961e-22 0.00838005)
(-0.122785 -3.58706e-23 0.00821428)
(-0.117317 1.55659e-21 0.00803263)
(-0.111908 -1.62948e-21 0.00783785)
(-0.106571 -1.65631e-21 0.0076328)
(-0.101314 1.16477e-21 0.00742028)
(-0.0961453 -3.97708e-22 0.00720311)
(-0.091074 -2.3172e-21 0.00698403)
(-0.0861072 2.72371e-21 0.00676571)
(-0.0812517 -2.60823e-22 0.00655069)
(-0.0765135 -9.13056e-23 0.00634133)
(-0.0718977 2.61035e-21 0.00613981)
(-0.0674089 -1.61741e-21 0.00594809)
(-0.063051 -3.06549e-21 0.00576791)
(-0.058827 1.81512e-23 0.00560074)
(-0.0547395 -1.39574e-21 0.00544779)
(-0.0507902 -1.63562e-21 0.0053103)
(-0.0469803 1.46818e-21 0.00518899)
(-0.0433106 1.03106e-21 0.00508398)
(-0.0397809 8.60529e-22 0.00499561)
(-0.0363909 2.93719e-21 0.00492401)
(-0.0331397 2.09445e-21 0.00486865)
(-0.0300257 -1.07274e-21 0.00482921)
(-0.0270472 1.1612e-21 0.004805)
(-0.0242018 1.81609e-22 0.00479506)
(-0.0214871 6.66413e-22 0.00479865)
(-0.0189002 9.42364e-22 0.00481456)
(-0.0164377 -1.21479e-21 0.00484165)
(-0.0140964 -5.25249e-22 0.00487877)
(-0.0118725 -1.65453e-21 0.00492474)
(-0.00976232 -7.10441e-23 0.00497842)
(-0.00776184 2.58549e-21 0.00503868)
(-0.00586719 3.5342e-21 0.00510333)
(-0.00407435 1.79533e-23 0.00516814)
(-0.00237879 1.0833e-22 0.00523034)
(-0.000776328 -9.44708e-22 0.00528979)
(-0.194011 3.59833e-21 0.0108221)
(-0.188841 -3.52329e-23 0.0109007)
(-0.183577 5.05992e-21 0.0109884)
(-0.178227 -3.16633e-21 0.0110781)
(-0.172805 -6.18528e-22 0.0111474)
(-0.167321 1.26567e-21 0.0111797)
(-0.161788 -2.01063e-21 0.0111742)
(-0.156218 -1.56384e-21 0.0111315)
(-0.150626 -3.11307e-21 0.0110529)
(-0.145024 -2.85641e-22 0.0109404)
(-0.139425 3.53469e-23 0.0107964)
(-0.133842 -5.42568e-21 0.0106237)
(-0.128287 1.63233e-21 0.0104254)
(-0.122772 2.22948e-21 0.0102048)
(-0.117306 2.14495e-21 0.00996539)
(-0.111902 1.89383e-22 0.00971062)
(-0.106569 5.9665e-21 0.00944404)
(-0.101316 -1.7132e-21 0.00916914)
(-0.0961524 -3.07587e-21 0.00888939)
(-0.0910857 3.61295e-23 0.00860813)
(-0.0861234 -2.12848e-21 0.00832858)
(-0.081272 -1.94767e-21 0.00805381)
(-0.0765374 0 0.00778667)
(-0.0719247 2.57947e-21 0.00752974)
(-0.0674385 -2.22682e-22 0.00728534)
(-0.0630825 4.75164e-21 0.00705552)
(-0.0588599 -1.09537e-22 0.006842)
(-0.0547731 2.73166e-22 0.0066462)
(-0.0508238 2.47344e-22 0.00646954)
(-0.0470133 -1.80674e-23 0.00631283)
(-0.0433424 1.20916e-21 0.00617617)
(-0.0398112 3.2966e-22 0.00605993)
(-0.0364192 -4.13679e-21 0.00596421)
(-0.0331657 -7.64775e-22 0.00588834)
(-0.0300492 -1.79202e-23 0.00583188)
(-0.0270681 -4.77041e-21 0.005794)
(-0.02422 -3.58937e-21 0.00577351)
(-0.0215026 -4.09519e-21 0.00576948)
(-0.0189131 -7.76345e-22 0.00578048)
(-0.0164482 3.47589e-21 0.00580511)
(-0.0141046 -2.23633e-21 0.00584197)
(-0.0118787 1.2832e-21 0.00588966)
(-0.00976679 -1.77569e-22 0.00594681)
(-0.00776489 -1.26407e-21 0.00601203)
(-0.00586913 -1.40295e-21 0.00608273)
(-0.00407548 1.46077e-21 0.00615389)
(-0.00237941 -1.77766e-23 0.00622217)
(-0.000776692 -2.32424e-22 0.00628742)
(-0.194012 -2.52967e-21 0.0135102)
(-0.188842 -5.51968e-21 0.0135942)
(-0.183576 6.73421e-21 0.0136879)
(-0.178224 8.34535e-21 0.0137826)
(-0.172798 1.98576e-21 0.0138504)
(-0.16731 -2.46258e-21 0.0138715)
(-0.161773 8.52094e-21 0.0138453)
(-0.1562 4.0128e-22 0.0137727)
(-0.150606 3.54106e-23 0.0136558)
(-0.145003 -5.22808e-21 0.0134973)
(-0.139404 1.81284e-22 0.0133005)
(-0.133822 4.26844e-21 0.0130692)
(-0.128269 -2.38915e-21 0.0128073)
(-0.122756 -8.88157e-21 0.012519)
(-0.117294 -1.21068e-21 0.0122087)
(-0.111895 3.17778e-21 0.0118807)
(-0.106566 3.6234e-23 0.0115394)
(-0.101319 3.88843e-21 0.011189)
(-0.0961602 0 0.0108338)
(-0.0910987 3.41781e-23 0.0104777)
(-0.0861413 1.84547e-21 0.0101247)
(-0.0812945 3.65152e-23 0.00977841)
(-0.0765639 -1.55873e-21 0.00944216)
(-0.0719548 -3.67799e-21 0.009119)
(-0.0674714 3.65668e-23 0.00881166)
(-0.0631175 1.0091e-21 0.00852249)
(-0.0588963 0 0.00825351)
(-0.0548101 -3.65244e-23 0.0080063)
(-0.0508608 -3.42697e-21 0.00778249)
(-0.0470496 -6.6863e-21 0.00758299)
(-0.0433775 4.7859e-22 0.00740785)
(-0.0398445 -3.99424e-21 0.00725744)
(-0.0364503 1.65634e-22 0.00713183)
(-0.0331943 1.81119e-23 0.00703017)
(-0.030075 -1.31938e-21 0.00695191)
(-0.0270909 4.20393e-21 0.006896)
(-0.0242399 1.47698e-21 0.00686102)
(-0.0215195 -1.60128e-21 0.00684586)
(-0.0189271 3.56144e-21 0.00684876)
(-0.0164595 1.98932e-21 0.00686808)
(-0.0141135 -3.6125e-23 0.00690214)
(-0.0118855 7.07854e-22 0.00694928)
(-0.00977164 -1.50721e-22 0.00700786)
(-0.00776819 3.12064e-21 0.00707626)
(-0.00587122 -3.64973e-22 0.00715141)
(-0.0040767 -1.72166e-22 0.0072274)
(-0.00238007 -4.7431e-21 0.00730033)
(-0.000777084 -5.86454e-21 0.00737001)
(-0.194014 3.79386e-21 0.0166432)
(-0.188843 -5.66696e-21 0.0167303)
(-0.183574 6.87358e-21 0.0168275)
(-0.178219 -7.44092e-22 0.0169241)
(-0.17279 1.65844e-21 0.0169864)
(-0.167297 -1.33741e-21 0.0169903)
(-0.161756 8.9513e-21 0.0169355)
(-0.15618 -9.65288e-21 0.0168238)
(-0.150583 9.42483e-21 0.0166582)
(-0.144978 7.80441e-21 0.0164422)
(-0.139379 3.85623e-22 0.0161803)
(-0.133798 7.31581e-21 0.0158772)
(-0.128247 6.53143e-21 0.015538)
(-0.122738 4.55287e-22 0.015168)
(-0.117281 5.07707e-22 0.0147726)
(-0.111886 3.3159e-21 0.014357)
(-0.106563 6.22182e-21 0.0139267)
(-0.101321 5.10765e-21 0.0134868)
(-0.0961687 -2.20503e-22 0.0130423)
(-0.091113 -2.13008e-21 0.012598)
(-0.086161 -5.95887e-21 0.0121585)
(-0.0813192 -2.42452e-21 0.0117281)
(-0.0765931 -2.94585e-22 0.0113107)
(-0.0719877 5.5014e-21 0.0109098)
(-0.0675073 -3.74512e-22 0.0105286)
(-0.0631557 -3.52886e-21 0.0101697)
(-0.0589359 -1.33659e-21 0.00983554)
(-0.0548504 -1.97711e-21 0.00952778)
(-0.050901 2.24924e-21 0.00924831)
(-0.047089 3.55532e-21 0.00899807)
(-0.0434155 1.33245e-21 0.00877707)
(-0.0398805 -7.35456e-23 0.00858566)
(-0.0364839 -6.75072e-21 0.00842386)
(-0.0332251 -1.28114e-22 0.00829062)
(-0.0301027 4.5171e-21 0.00818523)
(-0.0271155 1.47143e-22 0.00810643)
(-0.0242612 -1.10939e-21 0.00805252)
(-0.0215377 -2.27749e-21 0.00802215)
(-0.0189422 -2.23923e-21 0.00801326)
(-0.0164717 -4.22107e-25 0.00802389)
(-0.0141231 2.22764e-22 0.00805209)
(-0.0118926 -1.85916e-22 0.00809588)
(-0.00977682 -2.5854e-22 0.00815337)
(-0.00777171 2.55828e-22 0.00822263)
(-0.00587345 1.81371e-22 0.00830012)
(-0.00407799 -1.77898e-21 0.00837896)
(-0.00238077 3.63825e-21 0.00845464)
(-0.000777498 -2.05262e-21 0.00852694)
(-0.194015 0 0.020222)
(-0.188843 -4.57256e-21 0.0203096)
(-0.183573 -7.19514e-23 0.0204074)
(-0.178214 -9.5724e-21 0.0205025)
(-0.17278 -9.9657e-21 0.0205543)
(-0.167282 9.44328e-21 0.0205343)
(-0.161736 5.01089e-21 0.0204427)
(-0.156156 -9.67885e-21 0.0202822)
(-0.150556 3.28014e-22 0.0200568)
(-0.14495 1.86127e-21 0.0197712)
(-0.139351 -1.10931e-20 0.0194312)
(-0.133772 5.36477e-22 0.0190427)
(-0.128223 3.3884e-21 0.0186121)
(-0.122718 -1.55386e-20 0.0181459)
(-0.117265 -7.99706e-22 0.0176507)
(-0.111876 -3.67857e-22 0.017133)
(-0.10656 4.18547e-21 0.0165991)
(-0.101324 3.60065e-25 0.0160553)
(-0.0961778 4.4291e-22 0.0155075)
(-0.0911284 -2.06897e-21 0.0149613)
(-0.0861823 -2.85122e-21 0.014422)
(-0.0813459 -1.39504e-20 0.0138948)
(-0.0766246 -1.97145e-21 0.013384)
(-0.0720232 -9.23292e-21 0.0128938)
(-0.067546 1.84894e-22 0.0124276)
(-0.0631967 5.18407e-21 0.0119886)
(-0.0589784 0 0.0115794)
(-0.0548936 1.54096e-21 0.0112018)
(-0.050944 -8.89469e-21 0.010858)
(-0.0471311 2.49847e-22 0.010549)
(-0.043456 -6.51295e-21 0.0102746)
(-0.0399189 7.29299e-21 0.0100351)
(-0.0365196 2.23911e-21 0.00983063)
(-0.0332578 -2.5034e-21 0.00965977)
(-0.0301322 1.53633e-21 0.00952168)
(-0.0271415 6.29762e-21 0.00941483)
(-0.0242838 3.49055e-21 0.00933722)
(-0.0215569 2.01666e-21 0.00928725)
(-0.0189581 3.33072e-22 0.00926251)
(-0.0164846 2.30455e-21 0.00926073)
(-0.0141331 3.39374e-21 0.00927961)
(-0.0119002 -2.55714e-21 0.00931688)
(-0.00978227 -2.72024e-21 0.00937033)
(-0.00777541 -1.31429e-21 0.00943775)
(-0.00587579 2.82884e-22 0.00951504)
(-0.00407935 -3.22293e-22 0.00959435)
(-0.0023815 -3.64631e-23 0.00967051)
(-0.000777926 6.61926e-21 0.00974324)
(-0.194017 3.64919e-21 0.0242178)
(-0.188844 -2.18543e-20 0.024303)
(-0.183571 3.70211e-21 0.0243982)
(-0.178208 1.38696e-20 0.024488)
(-0.172769 3.82158e-21 0.0245242)
(-0.167266 -4.41586e-22 0.0244736)
(-0.161715 -7.30624e-23 0.0243369)
(-0.15613 7.98119e-21 0.0241179)
(-0.150527 3.37891e-21 0.0238217)
(-0.14492 7.55232e-22 0.0234547)
(-0.13932 1.07933e-21 0.0230238)
(-0.133742 -4.3118e-21 0.0225367)
(-0.128197 8.76301e-22 0.022001)
(-0.122696 -5.62069e-22 0.0214247)
(-0.117249 6.13e-21 0.0208157)
(-0.111866 2.81654e-21 0.0201817)
(-0.106555 -7.90536e-21 0.0195305)
(-0.101327 7.04131e-21 0.0188691)
(-0.0961875 -4.75456e-21 0.0182046)
(-0.0911447 7.46785e-23 0.0175435)
(-0.086205 -4.14945e-21 0.016892)
(-0.0813743 -4.64199e-21 0.0162559)
(-0.0766579 0 0.0156403)
(-0.0720608 -5.7665e-21 0.0150497)
(-0.0675869 -3.74741e-23 0.0144882)
(-0.0632401 1.38253e-21 0.0139593)
(-0.0590233 0 0.0134657)
(-0.0549391 2.44321e-21 0.0130095)
(-0.0509893 -5.98838e-23 0.0125932)
(-0.0471753 3.73649e-23 0.0122175)
(-0.0434985 -3.96143e-21 0.0118825)
(-0.039959 3.72665e-23 0.0115883)
(-0.036557 6.62024e-21 0.0113349)
(-0.0332919 5.47733e-22 0.0111205)
(-0.0301629 -2.87577e-21 0.0109443)
(-0.0271686 -5.76739e-21 0.0108043)
(-0.0243073 3.73595e-21 0.0106982)
(-0.0215768 -7.40663e-23 0.0106242)
(-0.0189746 3.44844e-21 0.0105795)
(-0.0164979 5.22413e-21 0.0105615)
(-0.0141435 -4.23056e-21 0.0105674)
(-0.011908 -5.59025e-22 0.0105948)
(-0.00978789 3.70592e-23 0.0106411)
(-0.00777922 -2.58882e-21 0.0107037)
(-0.00587819 -2.1722e-22 0.0107781)
(-0.00408074 -5.19213e-21 0.0108553)
(-0.00238224 -2.62083e-21 0.0109294)
(-0.000778355 1.60261e-21 0.0110002)
(-0.194019 6.9111e-23 0.0285673)
(-0.188844 -1.09126e-20 0.0286474)
(-0.183568 5.61869e-21 0.0287367)
(-0.178201 -6.25366e-21 0.0288174)
(-0.172756 -4.59857e-21 0.0288332)
(-0.167248 1.10485e-20 0.0287456)
(-0.161691 8.03604e-22 0.0285561)
(-0.156102 -1.21627e-20 0.0282697)
(-0.150496 -4.62445e-21 0.027893)
(-0.144887 -6.54428e-21 0.0274339)
(-0.139288 1.26629e-21 0.026901)
(-0.133711 3.50309e-20 0.0263034)
(-0.128169 -9.76266e-22 0.0256505)
(-0.122672 0 0.0249519)
(-0.117231 5.2674e-22 0.0242168)
(-0.111854 -1.92569e-25 0.0234544)
(-0.106551 1.04461e-20 0.0226736)
(-0.10133 -5.79365e-21 0.0218829)
(-0.0961975 -6.22278e-21 0.0210902)
(-0.0911617 -7.03078e-21 0.0203031)
(-0.0862286 -4.11917e-21 0.0195286)
(-0.0814038 3.72242e-22 0.0187732)
(-0.0766927 -2.07151e-21 0.0180428)
(-0.0720998 -7.55553e-23 0.0173426)
(-0.0676294 9.03316e-21 0.0166768)
(-0.063285 5.77817e-22 0.0160494)
(-0.0590697 4.52684e-21 0.0154634)
(-0.0549861 3.85403e-21 0.0149212)
(-0.0510359 3.77121e-23 0.0144252)
(-0.0472209 2.6448e-21 0.0139764)
(-0.0435422 5.40595e-22 0.0135744)
(-0.0400003 -3.20688e-21 0.0132196)
(-0.0365953 2.8776e-21 0.0129116)
(-0.0333269 -7.4988e-23 0.0126486)
(-0.0301943 -8.71729e-22 0.0124292)
(-0.0271963 9.18939e-21 0.0122515)
(-0.0243313 -5.78648e-21 0.0121127)
(-0.0215971 8.33362e-21 0.0120106)
(-0.0189914 -4.81107e-22 0.0119421)
(-0.0165114 -3.04967e-21 0.0119041)
(-0.0141541 3.47928e-21 0.0118938)
(-0.011916 -5.04549e-22 0.0119081)
(-0.00979357 -3.94216e-21 0.0119441)
(-0.00778305 -1.9699e-21 0.0119991)
(-0.00588059 -2.59058e-21 0.0120678)
(-0.00408212 4.07676e-22 0.0121402)
(-0.00238297 1.05358e-20 0.0122098)
(-0.00077877 -5.1071e-21 0.0122763)
(-0.19402 -1.15541e-20 0.0331732)
(-0.188845 -3.12852e-21 0.0332455)
(-0.183565 1.40573e-20 0.0333261)
(-0.178194 1.88447e-20 0.0333944)
(-0.172743 -7.15253e-21 0.0333857)
(-0.167228 -4.41202e-21 0.0332558)
(-0.161666 7.42826e-22 0.0330073)
(-0.156072 4.86945e-21 0.0326464)
(-0.150463 -1.48069e-22 0.0321814)
(-0.144852 -1.48538e-22 0.0316218)
(-0.139253 3.56053e-21 0.030978)
(-0.133679 2.97735e-22 0.0302609)
(-0.12814 -1.18474e-21 0.0294816)
(-0.122648 2.05093e-20 0.0286513)
(-0.117212 4.81532e-21 0.0277807)
(-0.111842 1.07166e-20 0.0268807)
(-0.106546 4.97568e-21 0.0259613)
(-0.101332 0 0.0250323)
(-0.0962077 1.97295e-22 0.0241028)
(-0.0911791 -2.60632e-21 0.0231813)
(-0.0862526 -9.95677e-21 0.0222759)
(-0.0814339 6.4704e-21 0.0213937)
(-0.0767281 7.94267e-22 0.0205413)
(-0.0721396 -4.86516e-21 0.0197243)
(-0.0676726 9.37123e-22 0.0189477)
(-0.0633306 -6.04279e-21 0.0182157)
(-0.0591168 0 0.0175314)
(-0.0550337 4.60109e-21 0.0168975)
(-0.0510832 4.0002e-21 0.0163165)
(-0.0472669 7.58413e-23 0.0157895)
(-0.0435863 -9.20511e-26 0.0153159)
(-0.0400419 -6.75956e-22 0.014896)
(-0.0366338 9.62438e-21 0.0145292)
(-0.0333621 3.04818e-22 0.0142134)
(-0.0302259 5.43452e-21 0.0139472)
(-0.0272241 3.6601e-21 0.0137281)
(-0.0243553 -4.43327e-21 0.013553)
(-0.0216174 7.58744e-21 0.0134195)
(-0.0190082 -2.34616e-21 0.013324)
(-0.0165249 -1.84535e-22 0.0132631)
(-0.0141646 5.68623e-22 0.0132336)
(-0.0119239 -3.7509e-23 0.013232)
(-0.0097992 -1.04136e-20 0.0132551)
(-0.00778684 3.72627e-23 0.0132999)
(-0.00588296 -1.85463e-21 0.0133604)
(-0.00408346 -6.42133e-21 0.0134257)
(-0.00238366 4.78852e-21 0.0134886)
(-0.000779155 2.50641e-25 0.0135486)
(-0.194022 -1.70115e-20 0.0379105)
(-0.188845 -3.17519e-21 0.037973)
(-0.183562 -1.45052e-20 0.0380427)
(-0.178186 -1.54905e-20 0.038096)
(-0.17273 -4.78716e-21 0.0380597)
(-0.167209 -7.87642e-21 0.0378839)