/*--------------------------------*- C++ -*----------------------------------*\
| =========                 |                                                 |
| \\      /  F ield         | OpenFOAM: The Open Source CFD Toolbox           |
|  \\    /   O peration     | Version:  2212                                  |
|   \\  /    A nd           | Website:  www.openfoam.com                      |
|    \\/     M anipulation  |                                                 |
\*---------------------------------------------------------------------------*/
FoamFile
{
    version     2.0;
    format      ascii;
    arch        "LSB;label=32;scalar=64";
    class       volScalarField;
    location    "0";
    object      Cy;
}
// * * * * * * * * * * * * * * * * * * * * * * * * * * * * * * * * * * * * * //

dimensions      [0 1 0 0 0 0 0];

internalField   nonuniform List<scalar> 
18080
(
-3.63943e-23
0
-1.31973e-22
0
0
0
0
-8.08131e-23
1.57231e-22
5.14126e-23
0
0
0
8.13628e-23
-2.80392e-23
-1.20367e-22
6.12118e-23
-3.22794e-23
-7.0262e-23
-3.64774e-23
7.80573e-23
-1.71184e-22
6.94225e-23
-2.42908e-23
-5.41887e-23
0
6.26084e-23
0
3.50096e-23
0
3.97424e-23
0
1.12543e-22
4.6443e-23
-1.00401e-22
5.37969e-23
5.19725e-23
0
0
0
0
5.83494e-23
5.93598e-23
3.01712e-23
-3.06751e-23
3.1243e-23
3.36476e-23
0
-7.36412e-25
-1.45027e-24
1.9739e-22
-1.27131e-23
5.90632e-22
3.39612e-22
-2.32819e-22
-2.16844e-23
1.58388e-23
6.24699e-22
-4.49647e-22
1.09657e-23
-5.48145e-22
-3.29897e-22
1.11814e-22
7.55679e-25
2.52968e-22
-3.4722e-22
2.87223e-22
-1.21577e-23
-2.6164e-22
2.2884e-23
8.30272e-23
4.9109e-24
-4.45031e-23
5.26387e-23
-1.74427e-22
-8.30098e-23
-7.09844e-23
3.14684e-22
-1.68911e-22
-1.89187e-23
4.0037e-23
-1.08341e-22
1.12662e-22
9.93033e-23
9.26693e-23
-1.74068e-22
1.11619e-22
-7.38536e-23
1.75529e-22
5.1591e-23
-5.79986e-23
-1.73414e-22
-6.11313e-23
7.01392e-24
-5.41302e-23
2.17959e-22
-1.0924e-22
1.7639e-24
-2.62517e-22
-1.05688e-21
5.66911e-22
-2.23208e-22
-4.34751e-22
5.12412e-22
5.44926e-22
-9.18123e-22
1.63346e-22
-5.10611e-22
7.54832e-22
-4.01358e-22
-2.0142e-22
4.3862e-22
0
0
2.02267e-23
-3.79096e-24
-4.94616e-22
-4.66357e-22
-4.69403e-22
2.65646e-23
-1.07032e-22
-1.66164e-22
6.50173e-23
-2.50026e-23
1.2021e-23
-5.74812e-22
-8.65199e-24
-1.71935e-22
3.35484e-22
-1.49152e-22
1.58167e-23
-9.50502e-23
-1.82001e-24
-3.7358e-24
1.03565e-23
-2.43869e-23
1.20118e-22
2.39998e-22
-8.11764e-23
1.43179e-23
-1.05072e-22
1.91584e-24
5.0351e-22
-1.55304e-22
4.78315e-22
4.51199e-22
-1.73228e-22
-3.80219e-24
8.31465e-22
-3.04563e-22
-3.68738e-22
2.13152e-23
3.25981e-23
4.04751e-24
3.78391e-22
0
-1.90903e-22
4.64556e-23
2.05811e-22
2.37787e-22
1.18413e-22
-2.57723e-23
-2.60584e-22
-4.93393e-22
-2.77507e-22
3.4138e-22
1.4837e-24
5.21651e-23
-3.99989e-24
-2.19652e-22
5.75719e-23
-6.36143e-22
-1.39394e-22
1.75957e-22
3.29192e-22
-5.62965e-22
-3.65233e-22
2.17186e-22
-2.46854e-23
-4.65688e-22
2.19501e-22
2.52425e-22
5.2394e-22
-1.31871e-23
-2.88269e-23
-2.54733e-22
-2.85616e-22
-5.45059e-22
2.67496e-22
2.77487e-22
3.90593e-24
-1.90198e-22
-5.37732e-22
-5.24512e-22
5.51585e-22
-1.32964e-22
4.71076e-22
8.14734e-22
7.58297e-22
1.21506e-21
4.97969e-22
9.23291e-24
-4.08386e-22
5.01232e-22
-8.95583e-22
-1.45344e-21
5.19032e-22
-1.01889e-21
3.89771e-23
-5.27216e-23
-4.73537e-23
-8.299e-24
-3.40975e-22
6.84632e-22
9.04607e-22
-1.07481e-25
5.88544e-22
-5.18115e-22
2.88656e-22
7.84643e-23
6.91152e-22
-3.53852e-22
-7.72156e-22
-2.8086e-22
-2.73191e-22
-4.87296e-22
-4.72939e-22
7.09688e-23
2.86636e-22
9.15776e-22
3.39707e-22
0
-6.2436e-22
-2.99869e-23
6.30739e-22
3.85895e-22
7.14141e-22
4.21098e-24
-3.65237e-23
-3.80235e-22
5.78237e-22
-6.65357e-22
5.24309e-22
6.52449e-22
-5.0235e-22
-2.74518e-25
2.65776e-25
-1.40054e-21
2.00921e-22
-4.36957e-23
9.6291e-22
4.95579e-22
-1.0818e-22
1.11643e-21
2.26706e-21
1.89232e-21
3.37124e-23
1.29402e-21
4.4498e-23
1.84011e-25
-1.28607e-21
-9.00433e-22
-8.71101e-24
6.7202e-22
8.53408e-24
7.6023e-22
-2.21636e-24
-3.50886e-22
-4.32778e-23
-4.41396e-22
-1.10285e-21
-1.33658e-21
-4.52941e-22
1.27499e-23
-1.92593e-21
1.28961e-21
1.1119e-21
-1.26696e-23
-9.1927e-22
-4.56843e-23
-8.08111e-22
3.78129e-22
-5.86939e-23
8.93291e-22
-4.80692e-22
8.19427e-23
9.47593e-22
-1.01805e-21
-8.03474e-24
6.50084e-22
-9.6779e-23
-1.33109e-21
8.284e-24
9.80095e-23
2.02238e-21
3.63882e-21
-1.72908e-25
-1.23259e-21
1.35963e-22
-1.80121e-21
-4.88714e-22
-1.27966e-22
-8.56875e-24
1.60831e-22
-8.84918e-22
-8.45633e-22
1.86453e-22
-1.34348e-21
-2.0729e-21
-4.88077e-22
-1.03883e-22
-2.03111e-22
-1.97113e-21
-1.68173e-21
1.39281e-22
-1.4713e-22
-7.98156e-24
-3.61573e-23
-8.92591e-23
-1.71587e-21
-1.44385e-21
-7.77516e-22
2.09172e-21
-1.22871e-21
-1.37734e-21
1.48837e-21
-1.58555e-21
5.43896e-22
-2.51189e-22
1.6004e-21
4.11355e-22
1.8093e-21
-3.23105e-22
6.82608e-22
4.578e-22
7.29131e-22
0
3.32364e-21
2.43421e-21
-1.21963e-22
1.72669e-23
-3.97451e-21
-1.3245e-21
-2.06534e-21
2.67107e-21
7.95758e-22
9.78811e-22
3.36376e-22
3.29322e-22
-7.81387e-22
-1.76831e-23
7.54288e-22
-1.70184e-22
1.07887e-21
-1.12067e-22
-1.97023e-21
1.38105e-21
6.44438e-22
-8.4135e-22
-7.49162e-22
-7.39561e-22
-1.25826e-21
-1.04638e-22
-2.75276e-23
-1.5071e-21
8.90909e-24
-1.76504e-23
2.43245e-21
1.03021e-22
-2.65918e-21
7.40235e-22
-1.79218e-22
-6.03509e-22
-1.24094e-21
1.30693e-21
7.09898e-23
5.24364e-22
7.37439e-22
6.27404e-22
8.93971e-22
7.64578e-22
-8.82364e-24
-2.32943e-21
1.15271e-22
2.30746e-21
1.50556e-21
-7.50937e-22
1.20167e-21
-2.49182e-22
1.70409e-23
2.43292e-22
8.58827e-22
1.4283e-21
3.90469e-21
-2.31616e-21
-2.4183e-21
0
-2.20442e-21
-2.78197e-25
3.84478e-21
1.54715e-21
-2.95924e-21
4.06829e-21
-7.28889e-23
-2.14021e-21
-3.40148e-22
-9.07505e-23
-1.23373e-21
1.54948e-21
1.17715e-21
-1.77879e-23
-1.23906e-22
-2.97911e-21
-9.16707e-22
-3.02052e-22
-7.80245e-23
2.8669e-21
-1.07695e-22
1.50496e-21
0
2.95741e-22
-1.74854e-23
1.67252e-22
-2.51482e-21
-1.13506e-21
-1.01824e-21
1.17945e-21
-1.93e-21
2.53574e-21
-2.31759e-21
1.70682e-22
-6.44134e-22
1.05494e-22
-2.41287e-22
3.41134e-23
-1.45354e-21
-1.2347e-21
1.09388e-22
-1.39288e-21
9.95084e-21
-3.47959e-23
6.30989e-21
-3.85106e-21
-3.51478e-23
-3.06961e-22
-3.58706e-23
1.55659e-21
-1.62948e-21
-1.65631e-21
1.16477e-21
-3.97708e-22
-2.3172e-21
2.72371e-21
-2.60823e-22
-9.13056e-23
2.61035e-21
-1.61741e-21
-3.06549e-21
1.81512e-23
-1.39574e-21
-1.63562e-21
1.46818e-21
1.03106e-21
8.60529e-22
2.93719e-21
2.09445e-21
-1.07274e-21
1.1612e-21
1.81609e-22
6.66413e-22
9.42364e-22
-1.21479e-21
-5.25249e-22
-1.65453e-21
-7.10441e-23
2.58549e-21
3.5342e-21
1.79533e-23
1.0833e-22
-9.44708e-22
3.59833e-21
-3.52329e-23
5.05992e-21
-3.16633e-21
-6.18528e-22
1.26567e-21
-2.01063e-21
-1.56384e-21
-3.11307e-21
-2.85641e-22
3.53469e-23
-5.42568e-21
1.63233e-21
2.22948e-21
2.14495e-21
1.89383e-22
5.9665e-21
-1.7132e-21
-3.07587e-21
3.61295e-23
-2.12848e-21
-1.94767e-21
0
2.57947e-21
-2.22682e-22
4.75164e-21
-1.09537e-22
2.73166e-22
2.47344e-22
-1.80674e-23
1.20916e-21
3.2966e-22
-4.13679e-21
-7.64775e-22
-1.79202e-23
-4.77041e-21
-3.58937e-21
-4.09519e-21
-7.76345e-22
3.47589e-21
-2.23633e-21
1.2832e-21
-1.77569e-22
-1.26407e-21
-1.40295e-21
1.46077e-21
-1.77766e-23
-2.32424e-22
-2.52967e-21
-5.51968e-21
6.73421e-21
8.34535e-21
1.98576e-21
-2.46258e-21
8.52094e-21
4.0128e-22
3.54106e-23
-5.22808e-21
1.81284e-22
4.26844e-21
-2.38915e-21
-8.88157e-21
-1.21068e-21
3.17778e-21
3.6234e-23
3.88843e-21
0
3.41781e-23
1.84547e-21
3.65152e-23
-1.55873e-21
-3.67799e-21
3.65668e-23
1.0091e-21
0
-3.65244e-23
-3.42697e-21
-6.6863e-21
4.7859e-22
-3.99424e-21
1.65634e-22
1.81119e-23
-1.31938e-21
4.20393e-21
1.47698e-21
-1.60128e-21
3.56144e-21
1.98932e-21
-3.6125e-23
7.07854e-22
-1.50721e-22
3.12064e-21
-3.64973e-22
-1.72166e-22
-4.7431e-21
-5.86454e-21
3.79386e-21
-5.66696e-21
6.87358e-21
-7.44092e-22
1.65844e-21
-1.33741e-21
8.9513e-21
-9.65288e-21
9.42483e-21
7.80441e-21
3.85623e-22
7.31581e-21
6.53143e-21
4.55287e-22
5.07707e-22
3.3159e-21
6.22182e-21
5.10765e-21
-2.20503e-22
-2.13008e-21
-5.95887e-21
-2.42452e-21
-2.94585e-22
5.5014e-21
-3.74512e-22
-3.52886e-21
-1.33659e-21
-1.97711e-21
2.24924e-21
3.55532e-21
1.33245e-21
-7.35456e-23
-6.75072e-21
-1.28114e-22
4.5171e-21
1.47143e-22
-1.10939e-21
-2.27749e-21
-2.23923e-21
-4.22107e-25
2.22764e-22
-1.85916e-22
-2.5854e-22
2.55828e-22
1.81371e-22
-1.77898e-21
3.63825e-21
-2.05262e-21
0
-4.57256e-21
-7.19514e-23
-9.5724e-21
-9.9657e-21
9.44328e-21
5.01089e-21
-9.67885e-21
3.28014e-22
1.86127e-21
-1.10931e-20
5.36477e-22
3.3884e-21
-1.55386e-20
-7.99706e-22
-3.67857e-22
4.18547e-21
3.60065e-25
4.4291e-22
-2.06897e-21
-2.85122e-21
-1.39504e-20
-1.97145e-21
-9.23292e-21
1.84894e-22
5.18407e-21
0
1.54096e-21
-8.89469e-21
2.49847e-22
-6.51295e-21
7.29299e-21
2.23911e-21
-2.5034e-21
1.53633e-21
6.29762e-21
3.49055e-21
2.01666e-21
3.33072e-22
2.30455e-21
3.39374e-21
-2.55714e-21
-2.72024e-21
-1.31429e-21
2.82884e-22
-3.22293e-22
-3.64631e-23
6.61926e-21
3.64919e-21
-2.18543e-20
3.70211e-21
1.38696e-20
3.82158e-21
-4.41586e-22
-7.30624e-23
7.98119e-21
3.37891e-21
7.55232e-22
1.07933e-21
-4.3118e-21
8.76301e-22
-5.62069e-22
6.13e-21
2.81654e-21
-7.90536e-21
7.04131e-21
-4.75456e-21
7.46785e-23
-4.14945e-21
-4.64199e-21
0
-5.7665e-21
-3.74741e-23
1.38253e-21
0
2.44321e-21
-5.98838e-23
3.73649e-23
-3.96143e-21
3.72665e-23
6.62024e-21
5.47733e-22
-2.87577e-21
-5.76739e-21
3.73595e-21
-7.40663e-23
3.44844e-21
5.22413e-21
-4.23056e-21
-5.59025e-22
3.70592e-23
-2.58882e-21
-2.1722e-22
-5.19213e-21
-2.62083e-21
1.60261e-21
6.9111e-23
-1.09126e-20
5.61869e-21
-6.25366e-21
-4.59857e-21
1.10485e-20
8.03604e-22
-1.21627e-20
-4.62445e-21
-6.54428e-21
1.26629e-21
3.50309e-20
-9.76266e-22
0
5.2674e-22
-1.92569e-25
1.04461e-20
-5.79365e-21
-6.22278e-21
-7.03078e-21
-4.11917e-21
3.72242e-22
-2.07151e-21
-7.55553e-23
9.03316e-21
5.77817e-22
4.52684e-21
3.85403e-21
3.77121e-23
2.6448e-21
5.40595e-22
-3.20688e-21
2.8776e-21
-7.4988e-23
-8.71729e-22
9.18939e-21
-5.78648e-21
8.33362e-21
-4.81107e-22
-3.04967e-21
3.47928e-21
-5.04549e-22
-3.94216e-21
-1.9699e-21
-2.59058e-21
4.07676e-22
1.05358e-20
-5.1071e-21
-1.15541e-20
-3.12852e-21
1.40573e-20
1.88447e-20
-7.15253e-21
-4.41202e-21
7.42826e-22
4.86945e-21
-1.48069e-22
-1.48538e-22
3.56053e-21
2.97735e-22
-1.18474e-21
2.05093e-20
4.81532e-21
1.07166e-20
4.97568e-21
0
1.97295e-22
-2.60632e-21
-9.95677e-21
6.4704e-21
7.94267e-22
-4.86516e-21
9.37123e-22
-6.04279e-21
0
4.60109e-21
4.0002e-21
7.58413e-23
-9.20511e-26
-6.75956e-22
9.62438e-21
3.04818e-22
5.43452e-21
3.6601e-21
-4.43327e-21
7.58744e-21
-2.34616e-21
-1.84535e-22
5.68623e-22
-3.7509e-23
-1.04136e-20
3.72627e-23
-1.85463e-21
-6.42133e-21
4.78852e-21
2.50641e-25
-1.70115e-20
-3.17519e-21
-1.45052e-20
-1.54905e-20
-4.78716e-21
-7.87642e-21
1.31941e-21
1.32702e-21
1.07274e-20
-8.14742e-21
2.32137e-20
1.70994e-20
-2.82546e-20
8.35969e-21
5.63386e-21
1.63135e-20
-2.61351e-20
2.39848e-20
1.49455e-20
7.63732e-23
7.6429e-23
-1.24091e-20
3.56241e-21
7.93123e-21
-9.72536e-21
6.22774e-21
-8.43341e-21
-3.75e-22
7.66433e-23
-7.98229e-21
-1.33774e-20
-8.02892e-21
-4.81761e-21
-3.09515e-21
7.39953e-21
5.98791e-21
2.88633e-21
4.29701e-21
-4.61723e-22
-1.1019e-20
3.76358e-23
-2.34987e-21
-1.98516e-20
6.53529e-21
-4.45336e-21
-2.27438e-21
-1.08462e-20
4.70807e-22
-4.67168e-20
-1.4474e-20
1.58097e-20
-5.31018e-21
2.18894e-20
-2.1856e-20
-7.56275e-21
-1.50554e-20
1.01583e-20
3.52065e-20
9.43299e-21
-6.55844e-21
2.41443e-20
-7.47179e-22
1.24785e-20
7.49067e-22
-7.46009e-21
2.05979e-21
-2.17858e-20
4.84135e-21
5.53813e-21
-2.21783e-22
-8.82367e-21
-8.1017e-21
-1.29124e-21
-2.02314e-20
3.42675e-21
1.38513e-21
-3.43364e-21
8.32001e-21
1.4008e-20
-7.25758e-21
-6.01007e-21
-6.51704e-22
-6.12449e-22
7.42498e-21
4.18865e-21
-4.59841e-21
-9.86967e-21
-2.13534e-21
5.25291e-21
-7.5688e-23
3.45085e-21
4.31919e-21
3.56701e-21
7.72092e-21
-1.0588e-20
9.24784e-21
-1.42611e-22
8.39446e-21
-9.24957e-21
-6.91063e-21
-5.41081e-21
5.3922e-21
-5.66746e-21
-1.70619e-22
-1.45045e-20
-1.59801e-20
1.52863e-22
9.25452e-21
9.44732e-21
6.80446e-21
1.69845e-20
5.9686e-22
3.02424e-20
-8.74735e-21
-1.14296e-20
1.95541e-20
-1.08317e-20
-1.09897e-21
-1.8258e-20
-8.57126e-21
-1.05263e-20
7.7434e-23
-1.13866e-20
3.76924e-22
-9.67407e-21
2.84238e-21
-2.96948e-21
-5.58379e-22
7.45978e-21
-4.52136e-22
-5.45019e-21
1.35941e-20
4.4382e-22
8.42475e-21
4.86646e-21
2.46599e-21
2.17244e-21
2.24877e-21
-2.96835e-21
-9.592e-22
-3.21109e-21
2.88083e-21
1.193e-20
-7.42035e-21
-5.04805e-21
-2.14147e-20
-2.69157e-20
-3.26933e-20
-1.92892e-20
7.1499e-21
0
5.45452e-21
-3.33381e-20
1.58973e-20
7.21882e-21
3.51126e-20
-1.08798e-20
-5.78189e-21
2.15906e-20
-8.01925e-25
-1.15786e-21
-7.40848e-21
-8.81557e-21
-1.28339e-20
1.55659e-22
1.22135e-20
6.08042e-21
-2.00154e-21
1.6918e-20
-4.63266e-21
5.14269e-21
1.11637e-21
-9.67163e-22
9.70946e-21
-5.03415e-21
-7.25957e-21
8.05641e-21
1.49677e-20
7.71505e-23
5.25723e-22
-3.68819e-21
-4.51318e-22
1.00358e-20
6.96027e-22
-4.88589e-26
0
1.2863e-20
-3.2254e-21
-3.66463e-21
7.64724e-23
-1.3007e-21
1.52896e-22
-1.51898e-20
-2.2894e-20
2.29492e-20
1.67359e-21
2.24516e-20
7.92912e-21
2.13926e-21
8.70216e-21
0
2.02102e-21
1.64715e-20
5.57903e-25
1.05006e-20
1.55379e-22
-8.58737e-21
-1.3084e-21
1.85806e-20
-1.54401e-20
1.75861e-20
9.90538e-21
-1.6229e-20
-6.02057e-22
-6.42406e-21
6.40087e-21
6.498e-21
7.06853e-22
0
-3.78861e-22
-3.09642e-22
1.27693e-20
-2.23284e-20
1.4934e-20
-1.64048e-20
-3.76773e-21
-3.2426e-21
8.05772e-21
4.89134e-21
7.7445e-23
-3.88118e-21
-5.03221e-21
3.73957e-22
7.10557e-22
-4.40872e-21
1.37758e-21
1.4737e-20
-1.32697e-21
-2.16242e-20
7.45907e-21
2.90528e-22
2.27437e-20
1.51451e-20
-7.3907e-21
1.31327e-20
1.57286e-20
-2.53746e-20
-3.70367e-21
-1.15791e-20
7.30844e-21
3.66701e-21
-2.28828e-21
2.74451e-20
1.96178e-21
3.13718e-22
3.4958e-20
5.9353e-21
-1.67787e-20
2.74753e-20
-5.1271e-21
-3.03539e-23
-1.30828e-20
-6.4938e-21
-5.45888e-21
8.48336e-21
-8.77505e-22
9.58099e-22
1.2671e-20
-3.60893e-21
-1.14691e-21
-1.01352e-20
1.47279e-20
-2.28786e-21
5.85105e-21
-7.78124e-23
2.19555e-21
-1.29657e-20
1.22328e-21
-4.96391e-22
-6.92753e-22
3.11567e-21
-7.80486e-22
-1.54192e-22
-1.08187e-20
-1.38206e-21
-5.67682e-22
-4.28773e-21
9.62612e-21
1.6419e-21
-2.4944e-20
-3.07572e-22
9.54057e-21
-3.08419e-22
-9.86631e-21
6.02464e-21
7.93408e-20
-8.84381e-21
9.21448e-21
-3.13515e-22
-3.1971e-20
-1.21016e-21
-3.85875e-20
-2.80452e-20
-1.28602e-24
-2.16942e-21
1.12551e-20
1.05557e-21
-7.57576e-21
1.59392e-22
-1.37332e-20
-1.59521e-22
-1.00778e-20
-1.13236e-20
8.27694e-22
-1.59292e-22
-1.58426e-24
1.15647e-21
9.33883e-21
2.97943e-21
-6.79876e-22
4.61353e-21
-6.8435e-21
-5.93526e-21
2.24745e-20
-8.15168e-22
-1.55693e-20
0
3.21917e-21
-3.1982e-21
7.73834e-23
7.57198e-21
9.49009e-21
1.76438e-20
-3.94359e-22
-1.68962e-21
7.88749e-21
1.86715e-21
-1.62094e-21
3.81223e-20
3.78931e-20
3.31752e-21
3.79288e-20
-1.53161e-21
-8.31094e-21
3.12571e-20
-8.01947e-21
3.1484e-22
-1.17447e-20
-1.49214e-20
-1.41363e-20
0
-1.73402e-20
1.81004e-20
8.27657e-22
-4.403e-21
-1.90616e-20
-1.31923e-21
1.57726e-20
-1.58358e-22
-6.02791e-22
8.47889e-22
1.88091e-20
0
2.68697e-21
3.76089e-21
-3.85401e-21
-5.49631e-22
3.63056e-22
-3.54327e-21
5.58339e-25
-9.17432e-22
7.9159e-21
-5.43782e-21
2.01581e-20
-3.374e-21
-6.38269e-22
-1.05662e-20
1.1652e-20
4.87078e-21
8.07864e-21
-8.60564e-22
1.00946e-20
6.94265e-21
-2.97045e-22
1.03529e-20
-4.50793e-20
-2.75656e-20
3.15897e-20
-3.85523e-21
3.5917e-21
-3.12407e-22
1.48777e-21
1.49396e-20
-1.07956e-20
-1.98797e-20
-3.27998e-20
-2.11175e-20
-3.15026e-20
1.97012e-21
9.54496e-21
1.90059e-21
-8.09586e-22
-2.84441e-21
-3.29851e-20
-1.80347e-24
-1.94396e-20
5.751e-21
2.41016e-20
2.78793e-21
-1.81937e-21
-1.31326e-20
-1.89678e-20
5.82761e-21
-1.83936e-20
5.86619e-22
2.4786e-21
-2.04618e-20
4.26344e-21
-9.86696e-21
-5.96437e-22
6.11514e-21
2.44917e-21
-5.04615e-22
4.65591e-21
1.21951e-20
8.15002e-22
1.31342e-20
-5.13112e-21
-4.16102e-21
2.29231e-21
3.45534e-21
1.17783e-20
-7.44799e-22
2.06379e-21
5.07656e-20
-1.51439e-20
-1.19024e-21
2.19477e-20
-3.12644e-22
-9.89439e-25
-1.73743e-20
-1.84632e-20
-3.14039e-20
-3.11737e-20
-2.25467e-21
9.24543e-21
-2.06867e-21
-5.64025e-20
-1.36347e-20
-2.16044e-20
3.19624e-22
-9.04232e-21
1.59092e-22
-2.19013e-20
3.09772e-20
-2.99224e-21
-1.14042e-21
-1.6586e-20
-1.28027e-20
-6.16521e-21
-1.70959e-20
1.20111e-21
-7.78131e-21
6.75625e-25
-5.52729e-21
1.16161e-20
-1.11017e-20
2.86266e-21
-7.96647e-21
-1.10467e-20
9.25918e-22
9.73765e-21
-1.91298e-20
3.98412e-21
6.2944e-21
3.49987e-21
-2.03319e-21
-3.03688e-21
1.3875e-20
-7.77358e-23
-1.86911e-20
1.27777e-20
1.48286e-20
3.09792e-20
-2.05275e-20
-1.2052e-20
1.4795e-20
4.38068e-21
-2.38594e-20
1.55181e-20
4.7892e-20
3.7664e-20
-2.22345e-20
1.07005e-20
2.23689e-20
-1.09824e-20
-1.60636e-22
2.52291e-20
2.79964e-20
-9.82297e-21
3.20665e-22
6.46319e-21
-2.16011e-20
-4.31119e-21
-8.10124e-21
-1.13158e-20
-1.01716e-20
1.7341e-24
-1.35162e-20
-1.69371e-20
2.36558e-21
-1.22295e-21
-1.76288e-20
5.06222e-21
-2.97133e-21
7.76995e-21
2.29935e-21
3.91087e-21
2.25675e-22
4.32898e-21
5.65407e-21
0
-6.65137e-21
-6.62262e-21
1.77684e-21
1.11364e-20
-2.97381e-22
5.83229e-21
0
-2.09089e-20
1.75337e-21
-3.94987e-20
1.94549e-20
-5.02447e-20
1.64781e-20
-9.40387e-21
-4.05308e-20
-1.51603e-21
-6.34121e-22
-2.15851e-20
6.23976e-20
2.27156e-20
-1.68727e-21
-9.89445e-21
3.28894e-21
1.68074e-20
-3.33259e-20
-8.10653e-21
3.53486e-20
-1.07254e-20
-1.80279e-20
1.13232e-20
1.18083e-20
1.18396e-20
7.91053e-22
2.14628e-20
-1.0665e-21
9.94593e-21
3.1903e-22
-5.57857e-21
-1.2922e-20
-2.14017e-20
-1.66628e-20
-4.5156e-21
-5.77881e-21
-1.38794e-21
-5.97736e-21
1.09847e-20
-1.87148e-21
6.10472e-21
7.80414e-23
-7.7967e-21
-2.016e-20
-6.17824e-21
-1.46548e-20
4.16348e-21
-4.80246e-20
-4.47935e-20
-2.22617e-20
4.5916e-20
-2.50274e-20
-2.32889e-20
1.68954e-20
6.13583e-20
-3.01443e-20
2.36616e-20
-5.16849e-21
-7.15693e-20
3.27363e-20
9.64711e-21
8.78301e-21
-2.17871e-20
5.17742e-23
-4.39065e-21
1.42006e-20
1.52094e-20
8.56717e-21
3.71225e-20
1.90806e-20
-1.61773e-22
7.19175e-21
-3.64673e-20
-4.03961e-22
2.29924e-20
1.18093e-20
-1.28948e-20
-9.38485e-22
-3.18785e-22
1.9446e-20
8.97791e-21
-8.21898e-22
5.2849e-21
-6.72818e-21
-2.66779e-22
-1.40565e-21
-1.15524e-21
8.91518e-21
1.98465e-20
-1.18501e-20
-1.18461e-21
-2.19677e-20
-9.20464e-21
4.53113e-22
-1.11576e-20
0
-1.55003e-20
-1.29235e-21
-2.92279e-20
1.66272e-20
2.689e-21
5.81006e-20
-1.45145e-20
-1.62195e-20
-1.68847e-20
3.18741e-22
-1.46033e-21
1.82682e-21
-9.6084e-21
2.06986e-20
2.50152e-20
-3.13098e-21
5.02678e-21
1.7246e-20
-1.67064e-21
1.82589e-20
1.61919e-22
-1.40811e-20
2.17783e-20
-8.9339e-21
-1.77973e-21
5.69801e-21
-6.10056e-21
1.17467e-20
-2.78806e-20
2.23949e-20
-1.15967e-21
4.09988e-21
1.47669e-20
8.43486e-21
6.23488e-21
1.0713e-20
7.3093e-21
-1.17308e-20
-1.67005e-20
1.76261e-20
5.13417e-21
-7.82145e-23
1.58498e-20
4.88582e-21
-6.11985e-21
-6.07886e-21
8.37072e-22
-9.15384e-21
-2.66515e-21
-2.22055e-20
3.57564e-20
3.6039e-20
0
-3.15499e-22
4.98504e-21
2.38872e-21
9.2067e-21
1.67154e-21
4.03091e-22
-2.53372e-20
-1.07069e-20
-2.80892e-20
1.44719e-20
-8.94503e-21
2.39268e-20
2.22062e-20
-2.19914e-20
-2.17748e-21
-3.91365e-20
-1.60156e-22
7.68529e-21
-1.61916e-22
-3.36162e-20
-1.55784e-20
1.09767e-20
1.80931e-21
0
4.29153e-21
-1.18854e-20
1.97533e-21
-6.73908e-22
7.25169e-21
-5.30244e-21
-9.2339e-22
1.2124e-21
3.77306e-22
-1.01699e-21
0
4.70041e-21
1.18508e-20
-3.39895e-22
8.36586e-22
-1.74804e-21
-6.67622e-21
-2.22387e-20
-2.97264e-22
-2.43179e-20
4.80875e-25
3.33725e-20
4.09639e-20
2.27471e-20
-2.73106e-20
0
-8.82048e-22
6.58749e-20
-3.19066e-22
2.67631e-22
-1.02211e-20
1.53946e-21
-2.46846e-20
0
-2.12351e-21
2.23139e-20
-1.61783e-22
-4.10678e-20
4.44036e-22
-1.62072e-22
1.08996e-20
-5.16343e-20
-3.42802e-20
-1.29269e-21
2.38605e-20
-1.59964e-20
3.8002e-21
-5.06569e-21
2.2696e-21
-2.36986e-20
-1.30876e-20
-1.79042e-21
-1.09719e-21
-3.28029e-21
7.58098e-22
9.00296e-22
-9.61628e-22
1.9e-20
-3.93909e-21
7.73584e-21
1.08938e-20
2.97595e-22
1.58254e-21
2.28375e-21
-3.72022e-21
1.76563e-20
-4.39327e-20
-2.63571e-21
-4.54692e-20
1.38069e-20
-8.30109e-20
4.3015e-20
-4.1965e-20
3.15812e-22
1.01788e-21
0
5.25741e-20
2.62867e-20
3.70782e-20
3.81773e-20
-3.21504e-21
-3.13838e-20
1.59238e-20
-1.3194e-20
-1.06373e-20
-3.39695e-20
-2.79045e-20
-3.76987e-20
5.77316e-21
-1.17576e-20
-1.32689e-21
-1.60202e-22
1.64431e-20
7.81671e-21
1.0932e-20
1.50552e-20
2.88224e-20
-7.42002e-21
2.38788e-20
1.56736e-21
5.83808e-21
1.44905e-20
8.30905e-22
-1.24707e-20
3.62653e-21
-1.295e-20
-1.07803e-20
-7.59968e-21
-3.35308e-21
-1.7834e-20
1.37547e-20
1.97227e-20
4.15473e-21
-2.21624e-21
2.10431e-20
-3.1265e-22
-2.72471e-21
-3.91869e-20
1.94488e-20
-3.34268e-21
-3.71402e-20
-3.16638e-22
1.69457e-20
3.87115e-20
2.13606e-20
3.4027e-20
4.48807e-20
-2.363e-20
3.19262e-22
-2.89199e-20
-7.7034e-21
1.6008e-22
5.11737e-20
2.13476e-20
9.16195e-21
-3.33554e-20
1.84835e-21
2.28607e-20
-7.69124e-21
1.34197e-20
-2.15655e-20
1.34386e-20
1.00608e-21
1.20449e-20
6.28431e-21
-7.26596e-21
-2.40011e-20
-3.32282e-21
5.65835e-21
5.35772e-21
3.25948e-21
-2.96113e-20
-1.63338e-20
-7.06983e-22
-1.93624e-20
6.11557e-21
4.03511e-21
-3.92221e-21
-5.35775e-21
-1.08535e-21
8.35981e-22
-3.21426e-21
3.5346e-20
-2.26241e-20
1.01224e-20
3.13518e-22
2.12456e-20
1.06e-20
2.45726e-21
3.02278e-20
-5.61973e-20
-3.17146e-22
-1.22532e-20
-2.427e-20
0
-3.00719e-20
-1.43586e-20
2.75472e-20
1.88551e-20
-2.09812e-20
-2.30531e-20
1.17844e-20
-1.26778e-21
-4.25064e-21
3.74286e-20
6.53431e-20
3.05341e-20
-6.52756e-21
-2.06011e-20
1.43162e-20
4.11427e-20
-2.2559e-20
1.04712e-20
-1.11995e-20
3.1881e-22
6.26003e-22
-1.05489e-20
4.556e-21
1.22228e-20
-2.15125e-20
1.10679e-21
-5.04706e-21
4.18991e-21
-5.5011e-21
-2.97425e-22
3.42944e-21
-2.95161e-25
5.31757e-22
-7.70046e-21
1.31317e-21
0
7.37998e-25
-3.13388e-22
-2.13018e-21
4.21745e-20
-1.9028e-20
-4.20563e-20
-3.21296e-20
1.13267e-20
-4.53265e-20
-2.99248e-20
5.09374e-20
-5.20262e-20
0
-1.27538e-20
0
3.42074e-20
-1.32002e-20
2.04644e-20
-8.63015e-20
8.31222e-21
5.98009e-20
-1.60475e-22
-3.37869e-22
-8.97519e-21
4.43392e-22
1.60902e-20
-2.25305e-20
1.15939e-21
-1.02369e-20
-1.79881e-20
-5.37303e-21
1.88403e-20
-2.20401e-20
2.72263e-21
7.5231e-21
-5.38216e-21
6.08832e-21
1.47748e-21
1.54694e-21
-6.28495e-21
3.77135e-21
1.80227e-21
-4.82177e-21
-3.24016e-25
-7.54228e-21
1.85494e-20
1.09666e-20
-1.01646e-20
-1.60544e-20
-3.12525e-22
-5.3201e-20
-1.4571e-20
5.7029e-20
1.3623e-20
3.57462e-21
3.24443e-20
5.88496e-21
-1.60593e-21
1.69128e-21
5.42623e-20
-4.86493e-20
-9.31398e-22
-6.53576e-20
1.34816e-21
-2.6097e-20
9.62235e-20
-1.82936e-20
7.65979e-22
6.38253e-21
1.82221e-20
3.79903e-20
-2.61474e-20
-3.85919e-20
2.491e-20
7.61358e-22
1.21818e-20
1.85303e-22
-1.46871e-20
6.3694e-25
1.7781e-20
-2.02958e-20
-5.32291e-21
-6.74885e-21
-3.82871e-22
9.56809e-22
1.09578e-20
1.15382e-20
1.43365e-20
5.08675e-21
-4.21303e-21
-1.16285e-21
1.15103e-21
-9.96213e-21
1.95804e-21
-3.75488e-22
-1.54328e-20
4.68715e-20
-4.0025e-21
0
-3.54924e-20
-9.12813e-20
-2.58622e-20
-3.9621e-20
-2.69867e-20
-2.22443e-20
-3.05106e-21
2.80748e-21
3.22004e-21
-2.49038e-20
5.78592e-20
0
4.96376e-20
1.90003e-20
-4.26236e-20
7.85015e-20
-7.44393e-21
-3.38195e-20
-6.42286e-20
-2.87741e-20
7.82042e-20
3.17019e-20
-3.87656e-20
3.02462e-20
-7.39462e-21
1.07356e-21
-3.74642e-20
-1.4936e-20
5.25649e-21
6.18664e-21
-1.1808e-20
-1.72201e-20
1.81279e-20
-7.8309e-21
7.51785e-22
-3.59834e-20
1.31201e-21
9.98062e-21
2.97224e-22
-1.12668e-20
-2.9698e-22
-8.10917e-22
-1.26854e-20
3.31306e-21
2.76493e-20
-1.51526e-20
-2.69521e-21
8.7672e-22
1.34414e-20
-2.81964e-20
7.75097e-21
-2.91487e-21
-9.98503e-20
2.83526e-20
-6.12358e-20
8.05786e-20
-3.97741e-21
-9.45733e-21
2.81357e-20
6.55026e-20
1.00831e-20
-1.53214e-19
-1.60338e-22
-9.25882e-22
-1.40833e-24
1.00797e-19
-9.11388e-20
9.26254e-22
5.80389e-20
-4.42393e-21
2.47452e-20
-3.20714e-20
-3.59653e-20
-1.50738e-21
3.9036e-20
-1.95792e-20
1.59497e-22
6.05115e-21
3.53241e-20
1.73427e-20
-4.3505e-21
9.93325e-21
1.48126e-20
-1.11026e-20
-9.98882e-21
1.7497e-20
-6.41069e-21
-4.44652e-23
6.52581e-22
-6.72681e-22
-7.56804e-21
2.01348e-20
3.71881e-20
2.78186e-20
3.13539e-22
3.36248e-20
5.69671e-20
1.67094e-20
4.32555e-21
5.58817e-20
-2.12501e-21
-8.4852e-20
-8.50429e-20
1.25399e-19
-1.31897e-20
-8.28716e-20
-5.69389e-20
-1.08779e-19
8.74437e-20
-6.76348e-20
6.78527e-20
-5.48291e-20
-6.27177e-20
-1.14136e-20
-2.13837e-20
1.09932e-21
-4.88931e-20
-1.78404e-21
8.84464e-21
1.7002e-20
6.86473e-20
-3.71452e-20
-6.11825e-21
1.15646e-20
8.95793e-21
7.21185e-22
3.9474e-21
4.57446e-22
-4.6917e-21
-8.28073e-21
1.10985e-21
1.15984e-21
1.60511e-21
2.1109e-20
-1.17131e-20
1.25085e-20
1.76912e-20
-8.28726e-21
9.60612e-21
-7.79967e-23
2.23153e-20
-6.15455e-20
8.77475e-20
1.50375e-21
3.23187e-21
0
1.36036e-20
-2.27725e-21
-1.05174e-20
-1.75473e-19
-1.0114e-19
-1.28175e-20
3.19911e-22
3.00017e-20
-2.23813e-19
6.41706e-22
2.25638e-20
-2.52905e-21
9.63768e-20
1.65484e-20
-1.02773e-19
0
-1.17147e-19
-1.1914e-21
5.77883e-20
7.02425e-21
4.69982e-20
2.80084e-20
7.92316e-20
-9.68234e-21
0
3.34694e-20
1.33879e-21
2.68262e-20
4.88822e-22
1.19689e-20
-1.39887e-20
2.67478e-25
1.57416e-22
-1.55761e-20
-7.55229e-22
1.41143e-20
-8.92473e-21
-5.77066e-21
-1.624e-20
2.18746e-21
1.18943e-20
1.77845e-20
-1.62708e-20
3.50868e-21
-1.52327e-20
-1.47773e-20
-2.82768e-20
6.28994e-22
-1.54875e-20
-8.5057e-20
3.03342e-20
-3.17448e-22
-5.47313e-20
1.29393e-19
1.57891e-19
1.16206e-19
-1.33722e-19
6.41568e-22
-1.35081e-19
-1.32855e-20
-1.68909e-19
6.49027e-21
-1.08785e-20
1.39428e-19
-1.47967e-19
1.28906e-19
-2.27748e-19
0
-9.61466e-20
-9.70048e-20
-6.96195e-20
-6.67929e-20
-3.88223e-25
-1.22668e-21
1.63835e-20
7.19593e-22
-4.24703e-20
1.49566e-20
-2.4131e-20
3.44304e-20
3.73683e-21
-2.43944e-20
5.38532e-21
-1.75207e-21
-5.68851e-22
9.83815e-22
4.91461e-22
-4.5725e-21
-3.09629e-21
-3.48712e-21
1.09663e-20
-4.55025e-20
-3.24909e-20
7.07394e-20
-1.89015e-20
3.22546e-21
1.45451e-19
-1.42446e-19
2.00453e-20
-1.76401e-19
-6.35975e-22
-9.19495e-21
-1.8175e-19
-1.66055e-19
-1.96745e-19
1.68967e-19
-2.11781e-20
-1.51935e-19
-1.59538e-19
1.5774e-19
1.80419e-19
1.09855e-20
-1.91771e-19
1.57086e-19
-3.5626e-19
1.1694e-20
8.91353e-20
-1.07576e-19
-1.5691e-20
1.12031e-19
1.75171e-21
1.26677e-20
-5.09108e-22
3.87478e-20
6.13585e-22
2.68401e-20
2.83549e-20
3.08903e-20
5.91684e-21
7.20038e-21
6.10365e-21
-3.45622e-21
9.30226e-21
5.24264e-21
7.11672e-21
0
-4.38233e-21
-3.12351e-21
2.97992e-22
-2.78665e-20
-3.67352e-20
9.10015e-21
-1.03249e-19
9.99663e-20
-1.46085e-19
5.7466e-20
-4.6441e-20
2.72958e-19
-1.28695e-20
-1.89379e-19
2.56347e-19
0
-4.09638e-19
2.27279e-19
2.01053e-19
1.6114e-22
-2.18819e-19
2.19923e-20
-7.11227e-21
2.31611e-19
-2.50939e-21
2.13603e-19
1.08361e-19
-1.25898e-19
-1.6035e-22
1.60224e-22
9.84892e-20
1.19611e-19
1.25105e-20
-1.27305e-20
5.50421e-21
-4.02735e-22
1.14454e-20
-7.92385e-23
-6.71206e-21
6.79206e-20
-1.01067e-21
8.50835e-21
2.97678e-22
-2.14046e-20
-1.24956e-20
3.83129e-21
-1.15326e-21
-1.02099e-20
1.98189e-20
-5.42367e-21
1.70139e-20
1.7588e-20
-3.01098e-20
1.2002e-20
1.37111e-19
-1.73604e-19
-3.1568e-22
1.44292e-19
-1.51616e-20
2.64065e-19
-3.44224e-22
-1.58161e-21
2.75257e-19
1.93211e-20
9.42791e-25
-3.18448e-19
9.57048e-21
2.13655e-21
2.08565e-21
-2.59769e-19
-7.21532e-22
1.39689e-21
6.75663e-21
-5.39167e-19
-2.81927e-19
1.53218e-19
6.45101e-21
1.04285e-21
-1.72631e-20
-1.38446e-19
3.49893e-21
1.49694e-20
-6.07617e-20
-7.25817e-20
-2.00014e-20
-3.74464e-20
-8.06817e-22
5.11771e-20
3.96151e-21
-6.59365e-22
3.39654e-21
-8.06483e-22
7.24245e-22
-9.48162e-21
-6.36959e-21
6.71673e-21
-5.58285e-21
9.31857e-21
7.59163e-20
-2.74169e-21
2.66488e-20
7.3207e-21
1.27657e-19
-2.58104e-21
-1.4944e-21
8.74509e-21
3.0541e-21
3.44567e-19
2.39825e-21
3.11241e-19
3.6121e-19
2.56921e-20
-3.5617e-19
2.99505e-19
-1.2256e-20
-3.22485e-19
-1.6037e-22
1.80602e-20
2.0009e-20
3.27264e-19
1.39337e-20
3.26676e-19
-3.38992e-19
-2.06884e-19
1.64769e-19
1.48022e-20
1.60453e-22
-3.29224e-20
-9.88947e-22
1.10262e-21
6.8652e-21
-3.08007e-20
4.84325e-21
-1.82941e-20
4.85221e-20
4.16128e-20
3.38698e-20
-8.79551e-21
2.8665e-20
-2.82566e-20
7.00637e-21
-5.66873e-25
9.64634e-21
-7.46288e-21
-3.46998e-21
-8.91139e-21
2.66212e-20
-2.99098e-20
3.11013e-22
3.96434e-20
-8.34152e-20
-1.79055e-19
5.16372e-20
-1.19363e-21
1.39188e-20
-7.79364e-20
-1.49386e-20
-1.16891e-20
6.37641e-22
2.98064e-20
4.33527e-19
-3.14206e-20
-4.23498e-19
-4.62692e-19
1.92313e-21
2.80983e-21
-2.02266e-21
4.04388e-19
-1.51814e-20
4.04272e-19
-4.18338e-19
-4.27397e-19
2.04042e-19
9.7839e-22
2.32899e-19
2.07922e-20
1.29392e-20
2.72168e-21
-8.24261e-21
1.35021e-19
1.09746e-19
1.33049e-19
-5.77011e-21
-1.57527e-22
-1.06487e-20
3.7599e-22
-3.88996e-21
2.86587e-20
-1.88046e-20
1.62787e-20
0
8.20097e-21
-9.89161e-22
-1.04682e-20
-2.92235e-20
1.14063e-19
0
0
-3.24181e-20
8.62658e-20
6.80021e-20
-6.9471e-20
-2.6382e-21
-6.98554e-20
-3.77904e-20
-1.05042e-21
-2.43428e-20
3.03099e-21
-4.04111e-20
-3.85877e-19
0
0
-1.194e-20
1.52283e-19
-1.19028e-19
0
7.92768e-20
-9.41936e-21
2.22221e-20
4.74409e-20
1.2013e-21
-4.57164e-21
-5.18132e-21
1.82097e-20
-1.81121e-20
2.67752e-21
0
1.44389e-20
9.96925e-21
1.73549e-21
-5.29123e-20
-6.63825e-20
-2.01705e-20
3.18081e-21
-3.41927e-21
-2.55436e-20
-8.83455e-20
7.59303e-20
-2.51382e-19
4.26819e-19
3.35798e-19
-6.20881e-20
-1.55007e-19
-3.01846e-20
-8.31889e-20
-1.12324e-19
-7.22133e-20
-9.77295e-22
2.82276e-20
3.37597e-20
9.70317e-21
6.88168e-21
1.78483e-20
6.71012e-21
-2.97893e-22
3.38235e-21
-3.12237e-22
9.37948e-22
1.01492e-20
5.89775e-20
-2.72598e-21
-1.08698e-20
-3.9731e-21
1.50379e-21
4.61221e-20
-5.29311e-21
4.1257e-20
-4.91856e-22
-1.56866e-20
-3.13232e-19
-1.53384e-21
-2.70006e-19
1.30565e-19
1.68695e-19
-1.24122e-19
-5.86267e-20
9.7243e-20
-5.18153e-20
-8.25897e-21
6.88007e-21
1.7175e-20
-3.8674e-21
-1.21816e-20
4.5144e-21
7.48517e-20
1.50083e-21
3.5919e-21
2.55543e-20
-9.43715e-20
2.94929e-20
-3.32048e-21
-2.4244e-20
2.1377e-20
-4.84163e-20
2.2237e-20
-1.6632e-20
-5.45954e-20