/*--------------------------------*- C++ -*----------------------------------*\
| =========                 |                                                 |
| \\      /  F ield         | OpenFOAM: The Open Source CFD Toolbox           |
|  \\    /   O peration     | Version:  2212                                  |
|   \\  /    A nd           | Website:  www.openfoam.com                      |
|    \\/     M anipulation  |                                                 |
\*---------------------------------------------------------------------------*/
FoamFile
{
    version     2.0;
    format      ascii;
    arch        "LSB;label=32;scalar=64";
    class       volScalarField;
    location    "0.05";
    object      k;
}
// * * * * * * * * * * * * * * * * * * * * * * * * * * * * * * * * * * * * * //

dimensions      [0 2 -2 0 0 0 0];

internalField   nonuniform List<scalar> 
18080
(
1.1564123e-05
1.1601492e-05
1.1686821e-05
1.1810375e-05
1.1975301e-05
1.2185033e-05
1.2442398e-05
1.2449806e-05
1.2493217e-05
1.2570173e-05
1.2681982e-05
1.2830846e-05
1.3019467e-05
1.3250852e-05
1.3527996e-05
1.3853581e-05
1.423064e-05
1.466073e-05
1.5142821e-05
1.5671115e-05
1.6245694e-05
1.6864055e-05
1.7521249e-05
1.8210697e-05
1.8924766e-05
1.9654847e-05
2.0391445e-05
2.1124514e-05
2.1843767e-05
2.253892e-05
2.3200094e-05
2.3818169e-05
2.4384944e-05
2.4893548e-05
2.533885e-05
2.5717427e-05
2.6028112e-05
2.6271716e-05
2.6451063e-05
2.6570726e-05
2.6636659e-05
2.6655806e-05
2.6635684e-05
2.6584025e-05
2.6508225e-05
2.641572e-05
2.6312116e-05
2.6203391e-05
1.1564857e-05
1.1601153e-05
1.1681349e-05
1.1795895e-05
1.1947762e-05
1.2139639e-05
1.2372713e-05
1.23876e-05
1.2432208e-05
1.2505929e-05
1.2610695e-05
1.2749008e-05
1.2923845e-05
1.3138438e-05
1.3396004e-05
1.369969e-05
1.4053334e-05
1.4458331e-05
1.4915581e-05
1.5425063e-05
1.5985117e-05
1.659283e-05
1.724403e-05
1.7933196e-05
1.8653396e-05
1.939628e-05
2.0152173e-05
2.0910383e-05
2.1659561e-05
2.2387753e-05
2.3083247e-05
2.373509e-05
2.433339e-05
2.4869975e-05
2.5338802e-05
2.5736093e-05
2.6060562e-05
2.6313268e-05
2.6497446e-05
2.6618182e-05
2.6682022e-05
2.6696543e-05
2.666993e-05
2.6610601e-05
2.6526796e-05
2.6426815e-05
2.6316394e-05
2.6201673e-05
1.156453e-05
1.1599549e-05
1.167899e-05
1.1792731e-05
1.1943698e-05
1.2134695e-05
1.2367591e-05
1.2379698e-05
1.2423845e-05
1.2498171e-05
1.2604387e-05
1.2744683e-05
1.2921697e-05
1.3138352e-05
1.3397603e-05
1.3702187e-05
1.4055151e-05
1.4458642e-05
1.4912994e-05
1.5417963e-05
1.5971675e-05
1.6571019e-05
1.7211532e-05
1.7887358e-05
1.8591607e-05
1.9316138e-05
2.0051606e-05
2.0787788e-05
2.151401e-05
2.2219069e-05
2.2892148e-05
2.3523281e-05
2.4103467e-05
2.4625181e-05
2.5083041e-05
2.5473332e-05
2.5794851e-05
2.6048332e-05
2.6236536e-05
2.6363986e-05
2.6436612e-05
2.6461394e-05
2.6445969e-05
2.6398271e-05
2.6325886e-05
2.6236361e-05
2.6135425e-05
2.6029385e-05
1.1565053e-05
1.1600734e-05
1.1680085e-05
1.1793394e-05
1.1943733e-05
1.2134105e-05
1.2366656e-05
1.2374014e-05
1.2415221e-05
1.2489401e-05
1.2596565e-05
1.2738628e-05
1.2917864e-05
1.3136871e-05
1.3398375e-05
1.3704999e-05
1.4058998e-05
1.4463022e-05
1.4918121e-05
1.5423721e-05
1.5978516e-05
1.6579775e-05
1.7223373e-05
1.7903833e-05
1.8614179e-05
1.9346064e-05
2.008989e-05
2.0835126e-05
2.1570686e-05
2.2284957e-05
2.2966656e-05
2.3605318e-05
2.4191535e-05
2.4717548e-05
2.5177724e-05
2.5568458e-05
2.5888617e-05
2.613921e-05
2.6323322e-05
2.6445805e-05
2.6512908e-05
2.6531891e-05
2.6510618e-05
2.6457205e-05
2.6379499e-05
2.6285346e-05
2.618034e-05
2.6070864e-05
1.156533e-05
1.1600745e-05
1.1679816e-05
1.1792787e-05
1.1942751e-05
1.2132853e-05
1.236547e-05
1.2369059e-05
1.2407062e-05
1.2480431e-05
1.2588405e-05
1.273242e-05
1.2914412e-05
1.3136587e-05
1.3401315e-05
1.3710934e-05
1.4067492e-05
1.4472501e-05
1.4927886e-05
1.5433311e-05
1.5987047e-05
1.6586381e-05
1.7227204e-05
1.7903947e-05
1.8609606e-05
1.9335906e-05
2.0073401e-05
2.0811771e-05
2.1540219e-05
2.224741e-05
2.2922374e-05
2.3554966e-05
2.4136037e-05
2.4657985e-05
2.511534e-05
2.5504456e-05
2.5824184e-05
2.6075394e-05
2.6261005e-05
2.6385689e-05
2.6455515e-05
2.6477582e-05
2.645962e-05
2.6409636e-05
2.6335299e-05
2.624424e-05
2.6142038e-05
2.6035248e-05
1.1566019e-05
1.1601949e-05
1.1681132e-05
1.179404e-05
1.1943796e-05
1.2133656e-05
1.2366224e-05
1.2367155e-05
1.2400105e-05
1.247048e-05
1.2578205e-05
1.2723111e-05
1.2906909e-05
1.3131471e-05
1.3398834e-05
1.3711064e-05
1.4070031e-05
1.4477151e-05
1.4933148e-05
1.5439169e-05
1.5993472e-05
1.6593177e-05
1.7234271e-05
1.7911326e-05
1.8617435e-05
1.93444e-05
2.0082798e-05
2.0822283e-05
2.1551985e-05
2.2260486e-05
2.2936725e-05
2.3570466e-05
2.4152493e-05
2.4675176e-05
2.5133023e-05
2.5522418e-05
2.5842238e-05
2.6093402e-05
2.6278882e-05
2.6403401e-05
2.6473075e-05
2.6495044e-05
2.6477072e-05
2.6427196e-05
2.6353106e-05
2.6262433e-05
2.616068e-05
2.6054527e-05
1.1567145e-05
1.1603922e-05
1.1683336e-05
1.1796293e-05
1.1945966e-05
1.2135712e-05
1.2368333e-05
1.2367067e-05
1.2395686e-05
1.2462697e-05
1.2568959e-05
1.2714224e-05
1.289945e-05
1.3126238e-05
1.3396284e-05
1.3711329e-05
1.4072985e-05
1.4482488e-05
1.4940446e-05
1.5446894e-05
1.6001425e-05
1.6601058e-05
1.7241624e-05
1.7917741e-05
1.8622656e-05
1.9348194e-05
2.0084983e-05
2.0822756e-05
2.1550749e-05
2.2257644e-05
2.2932487e-05
2.3565151e-05
2.4146497e-05
2.4668938e-05
2.5127031e-05
2.5517132e-05
2.5838113e-05
2.6090844e-05
2.6278237e-05
2.6404957e-05
2.6477065e-05
2.650165e-05
2.6486436e-05
2.643943e-05
2.6368212e-05
2.628024e-05
2.618098e-05
2.6077287e-05
1.1568939e-05
1.1607227e-05
1.1687243e-05
1.1800593e-05
1.1950495e-05
1.2140391e-05
1.237324e-05
1.2370285e-05
1.2395976e-05
1.2458084e-05
1.2561364e-05
1.2706202e-05
1.2892079e-05
1.3120414e-05
1.3392619e-05
1.3710135e-05
1.4074305e-05
1.4486182e-05
1.4946265e-05
1.5454258e-05
1.6009403e-05
1.6609636e-05
1.7250741e-05
1.7927259e-05
1.8632464e-05
1.935836e-05
2.0095624e-05
2.0834038e-05
2.1562882e-05
2.2270853e-05
2.2947015e-05
2.3581253e-05
2.416443e-05
2.468894e-05
2.5149358e-05
2.5541996e-05
2.5865727e-05
2.6121388e-05
2.6311858e-05
2.644177e-05
2.6517149e-05
2.654506e-05
2.6533208e-05
2.6489587e-05
2.6421678e-05
2.6336755e-05
2.6240263e-05
2.6139265e-05
1.157183e-05
1.1612615e-05
1.1693728e-05
1.1807894e-05
1.1958399e-05
1.2148783e-05
1.2382146e-05
1.2378022e-05
1.2401336e-05
1.2458752e-05
1.2558724e-05
1.2701768e-05
1.2887853e-05
1.3117413e-05
1.3391643e-05
1.37117e-05
1.4078649e-05
1.4493313e-05
1.4956045e-05
1.5466467e-05
1.6023253e-05
1.6624651e-05
1.726693e-05
1.7944597e-05
1.8650898e-05
1.9377859e-05
2.0116329e-05
2.0856154e-05
2.1586703e-05
2.2296716e-05
2.2975306e-05
2.3612417e-05
2.4198926e-05
2.4727194e-05
2.5191816e-05
2.5588992e-05
2.5917561e-05
2.6178254e-05
2.6373851e-05
2.6508891e-05
2.6589321e-05
2.6622143e-05
2.6615026e-05
2.6575948e-05
2.6512254e-05
2.6430995e-05
2.6337667e-05
2.6239625e-05
1.1576557e-05
1.1621359e-05
1.1704295e-05
1.1819906e-05
1.1971563e-05
1.2162937e-05
1.2397262e-05
1.2392451e-05
1.2414027e-05
1.2468361e-05
1.2563968e-05
1.2704528e-05
1.2890672e-05
1.312143e-05
1.3397837e-05
1.3720809e-05
1.409114e-05
1.450941e-05
1.4975798e-05
1.548983e-05
1.6050149e-05
1.665429e-05
1.7299355e-05
1.798002e-05
1.8689522e-05
1.9419903e-05
2.0162032e-05
2.0905897e-05
2.1640951e-05
2.2355918e-05
2.303991e-05
2.3682878e-05
2.4275642e-05
2.4810431e-05
2.5281808e-05
2.5685757e-05
2.6021037e-05
2.6288217e-05
2.6489943e-05
2.6630657e-05
2.671623e-05
2.6753638e-05
2.6750558e-05
2.6715006e-05
2.6654272e-05
2.6575305e-05
2.6483742e-05
2.6387305e-05
1.1584362e-05
1.1635415e-05
1.172115e-05
1.1839013e-05
1.1992495e-05
1.2185449e-05
1.2421269e-05
1.2416945e-05
1.2438673e-05
1.2492338e-05
1.2585109e-05
1.2724829e-05
1.2911477e-05
1.3145066e-05
1.3425352e-05
1.375305e-05
1.4128705e-05
1.4552655e-05
1.5024882e-05
1.5544796e-05
1.6110997e-05
1.6721028e-05
1.737124e-05
1.8057399e-05
1.8772702e-05
1.950918e-05
2.0257702e-05
2.1008252e-05
2.1750387e-05
2.2472735e-05
2.3164333e-05
2.3815069e-05
2.4415611e-05
2.495797e-05
2.5436608e-05
2.5847239e-05
2.6188514e-05
2.6460843e-05
2.6666777e-05
2.6810718e-05
2.6898551e-05
2.6937315e-05
2.6934797e-05
2.6899158e-05
2.6837801e-05
2.6757816e-05
2.6665028e-05
2.6567548e-05
1.1597325e-05
1.1657606e-05
1.1747088e-05
1.1867913e-05
1.2023786e-05
1.2218818e-05
1.2456596e-05
1.2467676e-05
1.2501119e-05
1.2563042e-05
1.2660618e-05
1.2802958e-05
1.2992968e-05
1.3231523e-05
1.3517326e-05
1.3851007e-05
1.4233037e-05
1.466363e-05
1.5142643e-05
1.5669399e-05
1.6242471e-05
1.6859418e-05
1.7516594e-05
1.8209186e-05
1.893126e-05
1.9674743e-05
2.0430404e-05
2.1188123e-05
2.1937369e-05
2.2666614e-05
2.3364726e-05
2.4021421e-05
2.4627169e-05
2.5173794e-05
2.5655626e-05
2.6068262e-05
2.6410311e-05
2.6682187e-05
2.6886508e-05
2.702779e-05
2.711207e-05
2.7146571e-05
2.7139285e-05
2.7098594e-05
2.7032183e-05
2.6947502e-05
2.6850464e-05
2.6749495e-05
1.1618484e-05
1.1686967e-05
1.1781114e-05
1.1905554e-05
1.2064361e-05
1.2261973e-05
1.2502224e-05
1.2788436e-05
1.2801972e-05
1.2845054e-05
1.2924343e-05
1.3047575e-05
1.3222468e-05
1.3448491e-05
1.372584e-05
1.4053374e-05
1.4431287e-05
1.4859488e-05
1.5337519e-05
1.5864422e-05
1.6438538e-05
1.7057255e-05
1.7716789e-05
1.8412024e-05
1.913669e-05
1.9883115e-05
2.0641813e-05
2.1402433e-05
2.2154145e-05
2.2885335e-05
2.3584728e-05
2.4241853e-05
2.4847097e-05
2.5392316e-05
2.5871753e-05
2.6281152e-05
2.6619145e-05
2.6886274e-05
2.708529e-05
2.7220835e-05
2.7299085e-05
2.7327405e-05
2.7313941e-05
2.7267246e-05
2.7195248e-05
2.7105693e-05
2.7004514e-05
2.6900391e-05
1.163994e-05
1.1716693e-05
1.1817021e-05
1.1946365e-05
1.2109238e-05
1.2310472e-05
1.255417e-05
1.284389e-05
1.285617e-05
1.2897088e-05
1.2972946e-05
1.3090895e-05
1.3259853e-05
1.3481999e-05
1.3757405e-05
1.408475e-05
1.4463511e-05
1.4893456e-05
1.5373968e-05
1.5903929e-05
1.6481556e-05
1.7104171e-05
1.7767986e-05
1.8467896e-05
1.9197398e-05
1.9948892e-05
2.0713154e-05
2.1479722e-05
2.2237676e-05
2.2975265e-05
2.3681135e-05
2.4344659e-05
2.4956044e-05
2.5506966e-05
2.5991558e-05
2.6405386e-05
2.6747003e-05
2.7016865e-05
2.7217682e-05
2.7354102e-05
2.7432352e-05
2.7459901e-05
2.7445047e-05
2.7396541e-05
2.7322509e-05
2.7230919e-05
2.7127961e-05
2.7022737e-05
1.1657592e-05
1.1744546e-05
1.185299e-05
1.1989033e-05
1.2157578e-05
1.2363912e-05
1.2612455e-05
1.2906949e-05
1.2918153e-05
1.2957253e-05
1.3030147e-05
1.3143798e-05
1.3306119e-05
1.3523973e-05
1.3796124e-05
1.4122717e-05
1.4501858e-05
1.4933227e-05
1.5416098e-05
1.5949236e-05
1.6530742e-05
1.7157844e-05
1.7826688e-05
1.8532167e-05
1.9267799e-05
2.0025692e-05
2.0796848e-05
2.1570785e-05
2.2336394e-05
2.3081721e-05
2.3795248e-05
2.4466231e-05
2.5084602e-05
2.56418e-05
2.6131779e-05
2.6549891e-05
2.6894576e-05
2.7166195e-05
2.7367431e-05
2.7502979e-05
2.7579175e-05
2.7603667e-05
2.7585e-05
2.7532224e-05
2.7453852e-05
2.7358316e-05
2.7252097e-05
2.714468e-05
1.1676213e-05
1.1774567e-05
1.1892474e-05
1.2036591e-05
1.2212207e-05
1.242505e-05
1.2679847e-05
1.298004e-05
1.2989474e-05
1.3026146e-05
1.3095654e-05
1.3204789e-05
1.3360756e-05
1.357251e-05
1.3840306e-05
1.4164117e-05
1.4542475e-05
1.4974257e-05
1.5458693e-05
1.5994468e-05
1.6579594e-05
1.7211253e-05
1.7885581e-05
1.859735e-05
1.9339993e-05
2.0105543e-05
2.0884641e-05
2.1667068e-05
2.244149e-05
2.3195621e-05
2.3917605e-05
2.4596335e-05
2.5221504e-05
2.5784245e-05
2.6278232e-05
2.6698733e-05
2.704407e-05
2.7314637e-05
2.7513232e-05
2.7644738e-05
2.771576e-05
2.7734276e-05
2.7709213e-05
2.7650059e-05
2.756589e-05
2.746567e-05
2.7356051e-05
2.7246729e-05
1.1694433e-05
1.1804594e-05
1.1932794e-05
1.2086124e-05
1.2270219e-05
1.2491137e-05
1.2753811e-05
1.3050078e-05
1.30493e-05
1.3077049e-05
1.3138252e-05
1.3239187e-05
1.3386722e-05
1.358925e-05
1.3850182e-05
1.4168415e-05
1.4543537e-05
1.497349e-05
1.5457499e-05
1.5994273e-05
1.6581748e-05
1.7216932e-05
1.7895771e-05
1.8613035e-05
1.9362129e-05
2.0134975e-05
2.0922034e-05
2.171268e-05
2.2495112e-05
2.3257076e-05
2.3986481e-05
2.4671743e-05
2.5302213e-05
2.5868972e-05
2.6365307e-05
2.6786755e-05
2.7131662e-05
2.7400724e-05
2.7597042e-05
2.7725832e-05
2.7794038e-05
2.7809985e-05
2.7782966e-05
2.7722854e-05
2.7638877e-05
2.7539577e-05
2.7431723e-05
2.7325203e-05
1.171066e-05
1.1832011e-05
1.19706e-05
1.2133897e-05
1.2327828e-05
1.2558537e-05
1.2830916e-05
1.2820594e-05
1.2832836e-05
1.2871584e-05
1.2941946e-05
1.3050223e-05
1.3203179e-05
1.3408879e-05
1.367236e-05
1.3992276e-05
1.4368962e-05
1.4800367e-05
1.5285734e-05
1.5823776e-05
1.641244e-05
1.7048827e-05
1.7729123e-05
1.8448556e-05
1.9200661e-05
1.9977495e-05
2.0769564e-05
2.1566304e-05
2.2356153e-05
2.3126819e-05
2.386616e-05
2.456291e-05
2.5206624e-05
2.5787964e-05
2.6300563e-05
2.6738947e-05
2.7101597e-05
2.7388698e-05
2.7603014e-05
2.7749614e-05
2.7835336e-05
2.7868524e-05
2.7858589e-05
2.781553e-05
2.7747515e-05
2.7660844e-05
2.7563525e-05
2.7466477e-05
1.172332e-05
1.185414e-05
1.2002395e-05
1.2175994e-05
1.2381075e-05
1.262346e-05
1.2907614e-05
1.2896749e-05
1.2908535e-05
1.2946917e-05
1.3016981e-05
1.3124944e-05
1.3277452e-05
1.3482319e-05
1.3745363e-05
1.4065268e-05
1.4442762e-05
1.487637e-05
1.5365152e-05
1.5907945e-05
1.6503189e-05
1.7148336e-05
1.7839577e-05
1.8571632e-05
1.9337993e-05
2.0130617e-05
2.0939872e-05
2.1754853e-05
2.2564044e-05
2.3354066e-05
2.4112093e-05
2.4826216e-05
2.5485898e-05
2.6081569e-05
2.6607108e-05
2.7056777e-05
2.7429218e-05
2.7724675e-05
2.7946446e-05
2.8099981e-05
2.8192401e-05
2.8232141e-05
2.8228516e-05
2.8191374e-05
2.8128237e-05
2.8044382e-05
2.7948929e-05
2.78536e-05
1.1731073e-05
1.1868706e-05
1.2025247e-05
1.2209228e-05
1.2426903e-05
1.2683109e-05
1.2981282e-05
1.2970238e-05
1.2982003e-05
1.3020612e-05
1.3091222e-05
1.3200012e-05
1.3353466e-05
1.3559424e-05
1.3823294e-05
1.4144164e-05
1.4523264e-05
1.4959671e-05
1.5452526e-05
1.6001281e-05
1.6604286e-05
1.725901e-05
1.7961812e-05
1.8707449e-05
1.9489211e-05
2.0298802e-05
2.1126283e-05
2.1960381e-05
2.2789284e-05
2.3599801e-05
2.4379186e-05
2.5114857e-05
2.5794414e-05
2.6408496e-05
2.6951938e-05
2.7419452e-05
2.7809842e-05
2.8124779e-05
2.8366785e-05
2.8539706e-05
2.8648724e-05
2.8700696e-05
2.8704115e-05
2.8669791e-05
2.8606167e-05
2.8519374e-05
2.8420663e-05
2.8322833e-05
1.1733087e-05
1.1874282e-05
1.2037362e-05
1.223186e-05
1.2463945e-05
1.2736438e-05
1.3050954e-05
1.3040206e-05
1.3052484e-05
1.3091999e-05
1.3164017e-05
1.3274638e-05
1.3430248e-05
1.3638819e-05
1.3904345e-05
1.4227639e-05
1.4609669e-05
1.5049443e-05
1.5546986e-05
1.6101928e-05
1.6713118e-05
1.7378184e-05
1.8093386e-05
1.8853535e-05
1.9651743e-05
2.0479471e-05
2.1326516e-05
2.2181324e-05
2.303196e-05
2.3865519e-05
2.4669717e-05
2.543342e-05
2.6146522e-05
2.6799219e-05
2.7382238e-05
2.7888221e-05
2.8312925e-05
2.8653282e-05
2.8911198e-05
2.9091414e-05
2.920075e-05
2.9247892e-05
2.9243032e-05
2.919744e-05
2.9121014e-05
2.9023055e-05
2.8916316e-05
2.8813458e-05
1.1729286e-05
1.187074e-05
1.2038656e-05
1.2244266e-05
1.2493221e-05
1.2784764e-05
1.3117844e-05
1.3107921e-05
1.3121299e-05
1.3162402e-05
1.3236577e-05
1.3349785e-05
1.3508279e-05
1.3721435e-05
1.3990966e-05
1.431742e-05
1.4702503e-05
1.5145584e-05
1.5647652e-05
1.6208869e-05
1.682834e-05
1.7503824e-05
1.8231616e-05
1.9006454e-05
1.9821453e-05
2.0668212e-05
2.1537017e-05
2.2417429e-05
2.3299348e-05
2.4171871e-05
2.5023126e-05
2.5836481e-05
2.6594021e-05
2.7283789e-05
2.7897874e-05
2.8426031e-05
2.8863902e-05
2.9207752e-05
2.9460069e-05
2.9626203e-05
2.9713913e-05
2.9732742e-05
2.9693746e-05
2.9609421e-05
2.9496404e-05
2.9375268e-05
2.9256103e-05
2.9147837e-05
1.172022e-05
1.1858933e-05
1.2030362e-05
1.2248475e-05
1.2517505e-05
1.2830948e-05
1.3184409e-05
1.3175848e-05
1.3190905e-05
1.3234209e-05
1.331104e-05
1.3427762e-05
1.3592714e-05
1.381125e-05
1.4083672e-05
1.4411947e-05
1.4798043e-05
1.5243533e-05
1.5749322e-05
1.6315766e-05
1.6941971e-05
1.7625607e-05
1.8362767e-05
1.9147886e-05
1.997329e-05
2.0827536e-05
2.1688414e-05
2.2430518e-05
2.3122582e-05
2.3943652e-05
2.4773724e-05
2.5567485e-05
2.6253496e-05
2.6778344e-05
2.7387087e-05
2.7915803e-05
2.8353606e-05
2.870045e-05
2.8959235e-05
2.9135751e-05
2.9237376e-05
2.9273577e-05
2.9255228e-05
2.9194357e-05
2.9103523e-05
2.8996786e-05
2.8888525e-05
2.8789224e-05
1.1707307e-05
1.1840955e-05
1.201528e-05
1.2248293e-05
1.2541219e-05
1.2879121e-05
1.3254102e-05
1.3247377e-05
1.3264584e-05
1.3310398e-05
1.3390923e-05
1.3512067e-05
1.3681e-05
1.3900519e-05
1.41713e-05
1.4496903e-05
1.4880111e-05
1.5322714e-05
1.5825061e-05
1.6385402e-05
1.699896e-05
1.7656207e-05
1.8340193e-05
1.9015103e-05
1.9563769e-05
2.0282527e-05
2.1114946e-05
2.1994432e-05
2.2889334e-05
2.3782185e-05
2.4654281e-05
2.5486447e-05
2.6261302e-05
2.6964354e-05
2.7589127e-05
2.812791e-05
2.857669e-05
2.8934136e-05
2.9201704e-05
2.9383535e-05
2.9475637e-05
2.9503103e-05
2.9469047e-05
2.9385099e-05
2.927102e-05
2.9155712e-05
2.9050045e-05
2.8955974e-05
1.1692202e-05
1.1819321e-05
1.1997038e-05
1.224871e-05
1.2569949e-05
1.2934534e-05
1.3331763e-05
1.3327249e-05
1.3346679e-05
1.3395627e-05
1.347899e-05
1.3601316e-05
1.3766531e-05
1.397869e-05
1.4239e-05
1.4547953e-05
1.4903451e-05
1.5299082e-05
1.572452e-05
1.6169817e-05
1.6627487e-05
1.7067395e-05
1.7455863e-05
1.8008237e-05
1.8727495e-05
1.9527463e-05
2.0391187e-05
2.1290713e-05
2.2201859e-05
2.3109669e-05
2.399709e-05
2.484439e-05
2.5635688e-05
2.6359629e-05
2.7000919e-05
2.7555236e-05
2.8015247e-05
2.837961e-05
2.8650922e-05
2.8834201e-05
2.8940104e-05
2.8973013e-05
2.8942293e-05
2.8858994e-05
2.87447e-05
2.8630793e-05
2.8522387e-05
2.8425217e-05
1.1677308e-05
1.1798672e-05
1.1983234e-05
1.2260592e-05
1.2616721e-05
1.3012003e-05
1.3434649e-05
1.3435414e-05
1.3455374e-05
1.3501843e-05
1.3576965e-05
1.3682044e-05
1.381726e-05
1.3980727e-05
1.416682e-05
1.4370838e-05
1.4594332e-05
1.4843635e-05
1.5120646e-05
1.5413565e-05
1.5706171e-05
1.6047389e-05
1.6587227e-05
1.7240623e-05
1.798226e-05
1.8794871e-05
1.9655671e-05
2.0548392e-05
2.1451762e-05
2.2353101e-05
2.323659e-05
2.408207e-05
2.4873859e-05
2.5601557e-05
2.6247167e-05
2.6808213e-05
2.7275053e-05
2.7646582e-05
2.7925166e-05
2.8115147e-05
2.8223306e-05
2.8263606e-05
2.8244032e-05
2.8175764e-05
2.8078908e-05
2.7979078e-05
2.7895488e-05
2.782831e-05
1.1672729e-05
1.1796943e-05
1.1998876e-05
1.2315519e-05
1.2724138e-05
1.3173053e-05
1.3652972e-05
1.4171796e-05
1.4149774e-05
1.4139391e-05
1.4141941e-05
1.4160485e-05
1.4198449e-05
1.425973e-05
1.4348093e-05
1.4466008e-05
1.4613401e-05
1.4787681e-05
1.4977931e-05
1.5177277e-05
1.5477871e-05
1.5940708e-05
1.650909e-05
1.7168735e-05
1.7905147e-05
1.8699144e-05
1.9537613e-05
2.0405607e-05
2.1284702e-05
2.2162566e-05
2.3024244e-05
2.3850419e-05
2.4625762e-05
2.5339486e-05
2.5974569e-05
2.6527682e-05
2.6989727e-05
2.735917e-05
2.7638401e-05
2.7831893e-05
2.7946327e-05
2.7990504e-05
2.7979873e-05
2.7948148e-05
2.7918741e-05
2.7823543e-05
2.774605e-05
2.7680829e-05
1.1663314e-05
1.1783953e-05
1.1998204e-05
1.2357692e-05
1.2822087e-05
1.332317e-05
1.385293e-05
1.4420983e-05
1.4386544e-05
1.4365065e-05
1.4359043e-05
1.4370897e-05
1.4402858e-05
1.44571e-05
1.4535102e-05
1.4636946e-05
1.475931e-05
1.4894776e-05
1.5057434e-05
1.5323163e-05
1.5735703e-05
1.6253152e-05
1.6867268e-05
1.756526e-05
1.8330482e-05
1.9150677e-05
2.0012882e-05
2.0902091e-05
2.1801568e-05
2.2697733e-05
2.3575446e-05
2.441629e-05
2.5205175e-05
2.5929677e-05
2.6576765e-05
2.7139707e-05
2.7613044e-05
2.7994502e-05
2.8287112e-05
2.8496344e-05
2.8630183e-05
2.8698256e-05
2.8710124e-05
2.971901e-05
3.1376082e-05
3.1286357e-05
3.1164865e-05
3.1024278e-05
1.1652261e-05
1.1765888e-05
1.1991394e-05
1.2478172e-05
1.3098722e-05
1.3724327e-05
1.4327301e-05
1.4932924e-05
1.4902472e-05
1.4884469e-05
1.4885682e-05
1.491813e-05
1.5001483e-05
1.5166956e-05
1.5456211e-05
1.591732e-05
1.6598762e-05
1.7575306e-05
1.915555e-05
2.125152e-05
2.3778547e-05
2.6713883e-05
3.0007983e-05
3.361889e-05
3.7458355e-05
4.1388684e-05
4.5284169e-05
4.9018539e-05
5.2601413e-05
5.5889556e-05
5.8824375e-05
6.1460962e-05
6.3791557e-05
6.5695016e-05
6.745874e-05
6.8825138e-05
7.0071857e-05
7.1147501e-05
7.2100533e-05
7.301156e-05
7.3947921e-05
7.5026484e-05
7.6441313e-05
0.00010649214
0.00014659133
0.00014612831
0.00014395421
0.00014076394
1.1639594e-05
1.1747497e-05
1.2026676e-05
1.3512704e-05
1.5451795e-05
1.7223757e-05
1.8448186e-05
1.9393304e-05
2.0462183e-05
2.0861971e-05
2.2763872e-05
2.8409204e-05
4.1140627e-05
6.5959646e-05
0.00010851921
0.00017388541
0.00026553797
0.0003849896
0.00053182599
0.00070378639
0.00089723901
0.0011071447
0.0013241138
0.0015479529
0.0017674456
0.0019521014
0.0021034869
0.0022218891
0.0023100883
0.0023757026
0.0024140416
0.0024347431
0.0024410394
0.0024280205
0.0024157417
0.002389352
0.0023663664
0.0023432177
0.002322327
0.0023073279
0.0023007276
0.0023074663
0.002336149
0.0027661038
0.0033329357
0.0033064091
0.0032357528
0.0031354978
1.1620188e-05
1.172971e-05
1.250773e-05
2.274802e-05
3.8072632e-05
5.4175426e-05
6.5715278e-05
7.6107508e-05
0.0001043895
0.00017173195
0.00056369987
0.0014937301
0.0032988313
0.0063313162
0.010727797
0.016352988
0.02288364
0.029927784
0.037113316
0.044135929
0.050787734
0.056927632
0.06246702
0.067359728
0.071543908
0.068954087
0.066591393
0.064346348
0.062119782
0.060138329
0.058100013
0.056155831
0.054290681
0.052287268
0.050561034
0.048883675
0.047515832
0.04631269
0.045290586
0.044494873
0.043952512
0.043743148
0.044020145
0.048241417
0.056363102
0.059949568
0.062531407
0.063630917
1.1606962e-05
1.1793957e-05
1.7370359e-05
0.00010046262
0.00025584026
0.00049942417
0.00087583349
0.0019878821
0.0050911888
0.011990836
0.026500267
0.047463629
0.074111065
0.10568868
0.13880692
0.17075389
0.20036926
0.2274232
0.2522401
0.27534465
0.29734483
0.31871924
0.33976755
0.36057352
0.38054235
0.37866585
0.37840118
0.37820665
0.37912048
0.38000947
0.38103501
0.38323432
0.38620945
0.38750523
0.39080199
0.39527436
0.40319019
0.41313394
0.42480902
0.43864325
0.4552658
0.47658787
0.50700551
0.56417778
0.62127596
0.64951113
0.66809327
0.66986562
1.1597969e-05
1.2862928e-05
6.0818142e-05
0.00070070464
0.0023251311
0.0065781482
0.016563219
0.039668523
0.079149095
0.13563623
0.19690468
0.25543225
0.30731879
0.35219062
0.38971572
0.42182371
0.45113363
0.47997644
0.51030136
0.54368112
0.58147643
0.6247298
0.67405719
0.72926553
0.78731265
0.85412161
0.91768828
0.97948941
1.044405
1.1127868
1.1864641
1.2685734
1.3552332
1.4362373
1.5302523
1.6298186
1.7495408
1.8722892
1.9854025
2.0927247
2.1964615
2.3041479
2.4304871
2.6231478
2.8029181
2.9029017
2.9731529
2.9749434
1.1599178e-05
2.4969937e-05
0.00040306295
0.0047379941
0.019032321
0.054306147
0.12090524
0.21810862
0.3205956
0.41421532
0.48857144
0.54376467
0.58424063
0.61421088
0.63885784
0.66318021
0.69056625
0.72393856
0.76571982
0.81829742
0.88394356
0.96449093
1.0608146
1.1712611
1.282391
1.4009326
1.5330614
1.6822083
1.8556317
2.0553229
2.2863128
2.5645639
2.8755306
3.1412834
3.4734422
3.8378448
4.2715295
4.6932463
5.0886975
5.4690291
5.8420506
6.2263087
6.6597656
7.287249
8.1923433
8.7811312
9.1789643
9.465625
1.1678514e-05
0.00013507221
0.0026383047
0.025336841
0.094976302
0.2274348
0.39516458
0.55290874
0.67088183
0.74793012
0.79784156
0.82875568
0.85029409
0.86891567
0.88907258
0.91556727
0.95243822
1.0032495
1.0701702
1.1569432
1.2675318
1.4045954
1.5681088
1.7513431
1.9204672
2.1131703
2.3488208
2.6302928
2.9749766
3.3911142
3.9053426
4.5903585
5.4466225
6.4082577
7.4476285
8.4881099
9.5779845
10.68136
11.821688
13.000025
14.236881
15.581722
17.155903
19.281697
21.682622
22.398595
22.829153
24.090047
1.2599322e-05
0.00090717363
0.013505266
0.098407648
0.3057605
0.57394202
0.80227523
0.94876536
1.0312919
1.0743132
1.0967989
1.1101036
1.1232592
1.1417235
1.1705618
1.2143181
1.2770732
1.3622636
1.4739523
1.6189216
1.8027926
2.0303514
2.3037093
2.6192034
2.952736
3.3443085
3.8131411
4.3745344
5.08839
5.9703765
7.1225025
8.609502
10.35106
12.471249
14.619722
16.796353
19.023091
21.363816
23.800612
26.33965
29.010672
31.899637
35.21091
39.328662
42.729126
43.403421
44.239908
47.732905
2.0205927e-05
0.0048583308
0.052134676
0.2840006
0.69294147
1.0398372
1.2444356
1.3373322
1.372685
1.3853082
1.3926025
1.4057564
1.4288384
1.4649766
1.5221558
1.6085834
1.7285793
1.8850207
2.0867867
2.3454776
2.6685568
3.0679537
3.5546002
4.1448127
4.8864014
5.7277648
6.6677872
7.7660162
9.1210675
10.744123
12.784235
15.211417
17.865695
20.944941
24.385865
28.047176
31.975995
36.031879
40.239048
44.613098
49.195738
54.106298
59.615741
65.910422
69.017625
71.897723
75.420537
81.590367
6.7336958e-05
0.01993459
0.15708504
0.6296212
1.2101496
1.540779
1.6687007
1.6996542
1.699726
1.700247
1.7131627
1.7442701
1.7972759
1.8767249
1.9976585
2.1740133
2.4129722
2.7180423
3.0909887
3.5484929
4.1061228
4.7911243
5.6149943
6.5871616
7.7249424
9.0434995
10.571677
12.354655
14.457434
16.895024
19.810049
23.310327
27.314231
31.982087
37.130347
42.652238
48.650407
54.824069
61.25614
67.941615
74.916616
82.322139
90.465251
98.914407
102.99445
111.27443
120.05833
128.44972
0.00028790237
0.064785796
0.38471761
1.12127
1.7794462
2.0177164
2.0594295
2.0429647
2.0271302
2.0372578
2.0771663
2.1521842
2.2679275
2.4254129
2.6362524
2.9153145
3.2735997
3.7194569
4.2618151
4.9399023
5.7718321
6.8023949
8.0357582
9.4806586
11.155033
13.107317
15.397891
18.087228
21.262094
24.894037
29.158656
34.196816
39.978523
46.5067
53.637216
61.338152
69.654381
78.238433
87.192222
96.483631
106.15899
116.39208
127.56009
138.66826
149.66316
165.77438
180.94774
189.16364
0.0010677725
0.16864627
0.78424685
1.6642376
2.3021188
2.4287774
2.3972477
2.3514598
2.3386056
2.3776867
2.4618505
2.5937751
2.775756
3.0057109
3.3033885
3.6883897
4.1753348
4.7769577
5.5076077
6.4346941
7.5715008
8.9912999
10.682754
12.665014
14.981793
17.70861
20.936881
24.775985
29.372633
34.617634
40.878717
48.173693
56.487508
65.609388
75.53168
86.092882
97.211657
108.70316
120.56422
132.7879
145.4921
158.91868
173.69817
189.42911
210.61905
234.67697
254.70384
261.51546
0.0030861637
0.34761614
1.2696943
2.1898554
2.6799728
2.6971963
2.6148641
2.5651662
2.5742529
2.6533812
2.7836687
2.971216
3.2201452
3.5268791
3.921359
4.4258122
5.0571518
5.8328565
6.7723588
7.9784888
9.4479596
11.295516
13.481421
16.048075
19.07381
22.665158
26.944847
32.071967
38.249144
45.260292
53.898967
64.075363
75.631277
88.340863
102.07823
116.61957
131.71561
147.3375
163.2612
179.52167
196.29366
213.84127
233.17872
255.54309
283.33383
311.71332
332.66195
337.39317
0.0065099425
0.57081987
1.6539808
2.4335804
2.7697682
2.7233854
2.6366516
2.6115365
2.657948
2.7854363
2.9661738
3.2139842
3.5342067
3.9209424
4.4170353
5.0459125
5.8272473
6.7840619
7.9415835
9.4449634
11.261024
13.560599
16.259096
19.437539
23.211038
27.719377
33.118105
39.613691
47.450769
56.241206
67.331531
80.365576
95.165331
111.61299
129.52434
148.68443
168.81457
189.63208
210.85434
232.45094
254.5147
277.12937
301.39862
327.97532
357.42457
386.24324
405.19523
405.45582
0.010871144
0.7165577
1.7617719
2.2967798
2.4933374
2.4641231
2.4113554
2.426668
2.5149724
2.6902107
2.9194545
3.2245274
3.6105838
4.0688983
4.6580431
5.401374
6.3215972
7.4482587
8.813084
10.605664
12.756391
15.504486
18.703719
22.490275
27.015375
32.451911
38.98975
46.884417
56.414999
66.961542
80.568804
96.356108
114.21931
134.10536
155.84613
179.23788
203.95884
229.55593
255.67763
282.27483
309.32932
336.5869
364.93192
393.51589
423.68244
451.16515
466.91093
462.25902
0.012918863
0.6067504
1.4009846
1.7462211
1.8756062
1.8820385
1.8632908
1.9109276
2.0265417
2.2399388
2.4941001
2.8286836
3.2473832
3.7374354
4.3774155
5.1925737
6.2104555
7.4631877
8.9895612
11.031996
13.471125
16.630361
20.284861
24.639643
29.881087
36.216033
43.871979
53.150687
64.365926
76.613672
92.770375
111.21267
132.00885
155.16762
180.51882
207.83102
236.72293
266.58447
296.98299
327.84445
358.99602
389.78322
420.96084
450.70777
480.46869
505.09718
517.48946
508.86884
0.010983469
0.29384246
0.68868499
0.86398056
0.94942993
0.98270834
0.99658024
1.0531918
1.1612754
1.3351294
1.5518298
1.8418784
2.2038521
2.6128251
3.1827926
3.9351356
4.9016871
6.1167155
7.6280233
9.7983507
12.353923
15.770956
19.742855
24.537267
30.378619
37.500783
46.16416
56.739516
69.521774
83.361269
101.9804
122.93658
146.56686
172.93674
201.8135
232.94583
265.89257
299.8015
334.18436
368.93449
403.67507
437.28744
470.40859
500.21441
527.54842
548.01565
557.71633
547.02896
0.0093163101
0.065823348
0.15520376
0.19781713
0.22330883
0.23790814
0.24654783
0.26780657
0.30601487
0.36789189
0.44931504
0.564346
0.71830454
0.90723862
1.191143
1.6039488
2.1858115
2.9680758
3.9967837
5.590732
7.656054
10.769211
14.397557
18.9387
24.654567
31.834935
40.785204
51.936674
65.648275
80.572138
101.47695
124.77675
151.21517
180.92858
213.49598
248.64114
285.86374
324.00005
362.52091
401.27377
439.62636
475.82671
510.46115
539.03573
561.25674
576.02729
583.54285
576.5762
0.019401379
0.010524908
0.01823116
0.022042389
0.024925267
0.027214198
0.028801846
0.031827742
0.036901423
0.044924871
0.055589039
0.070763943
0.091485734
0.11780378
0.15811202
0.21881332
0.30874719
0.43780919
0.62140829
0.93127704
1.3844217
2.1822528
3.2751451
4.8710214
7.2545353
10.827094
16.131804
23.91545
34.891326
46.650076
68.414753
91.974289
119.47215
151.2699
186.63205
225.2903
266.52713
308.85175
351.6917
394.54483
436.3903
474.47029
509.64286
534.72037
547.60997
555.46966
563.81785
572.96507
0.1343485
0.030826471
0.021043876
0.016642129
0.017754965
0.022614827
0.026871679
0.031770939
0.038083154
0.04654935
0.057318866
0.071430745
0.08988213
0.11357841
0.14590528
0.19005977
0.25034329
0.33237993
0.44420363
0.60760707
0.83138877
1.1614674
1.6054812
2.2203376
3.0816081
4.2966154
6.016764
8.473229
11.91515
16.114067
23.100545
31.684826
42.505047
56.094598
72.315698
91.337141
112.8487
136.09596
160.76435
186.15002
211.22163
233.86828
253.57944
264.44719
263.72128
265.52948
275.86128
317.12292
0.014649144
0.00249893
0.0011737157
0.00089143879
0.00075263162
0.00069174216
0.00068065463
0.00071087382
0.0007804413