/*--------------------------------*- C++ -*----------------------------------*\
| =========                 |                                                 |
| \\      /  F ield         | OpenFOAM: The Open Source CFD Toolbox           |
|  \\    /   O peration     | Version:  2212                                  |
|   \\  /    A nd           | Website:  www.openfoam.com                      |
|    \\/     M anipulation  |                                                 |
\*---------------------------------------------------------------------------*/
FoamFile
{
    version     2.0;
    format      ascii;
    arch        "LSB;label=32;scalar=64";
    class       volScalarField;
    location    "0.05";
    object      nut;
}
// * * * * * * * * * * * * * * * * * * * * * * * * * * * * * * * * * * * * * //

dimensions      [0 2 -1 0 0 0 0];

internalField   nonuniform List<scalar> 
18080
(
3.6287376e-08
5.1358591e-08
5.3142754e-08
4.1856035e-08
3.3948915e-08
2.8265784e-08
2.4079991e-08
1.0885804e-09
2.1140092e-09
2.5678928e-09
2.7945533e-09
2.9041096e-09
2.9508241e-09
2.9637021e-09
2.9572406e-09
2.9384588e-09
2.9199388e-09
2.8975333e-09
2.8642712e-09
2.8259926e-09
2.7807178e-09
2.7290403e-09
2.6728728e-09
2.614166e-09
2.5544889e-09
2.4952823e-09
2.4379106e-09
2.3835105e-09
2.333109e-09
2.2875534e-09
2.2475403e-09
2.2136732e-09
2.1865415e-09
2.1665469e-09
2.1542494e-09
2.1501393e-09
2.1547907e-09
2.1689906e-09
2.1936644e-09
2.230043e-09
2.2797747e-09
2.3450333e-09
2.4286632e-09
2.5343217e-09
2.6665924e-09
2.829335e-09
3.032018e-09
3.2928914e-09
3.6668979e-08
5.1145952e-08
5.4013404e-08
4.2723386e-08
3.4728228e-08
2.8969985e-08
2.4687757e-08
1.239068e-09
2.0951142e-09
2.4916635e-09
2.6970923e-09
2.8009402e-09
2.8512923e-09
2.8723411e-09
2.8755736e-09
2.8685344e-09
2.8658226e-09
2.8467102e-09
2.8173352e-09
2.777549e-09
2.7289934e-09
2.6739926e-09
2.6145308e-09
2.5524878e-09
2.489551e-09
2.4273731e-09
2.3674192e-09
2.3108588e-09
2.2586457e-09
2.2118525e-09
2.1710962e-09
2.1369065e-09
2.1099805e-09
2.0908383e-09
2.0798732e-09
2.0778845e-09
2.0853195e-09
2.1031114e-09
2.132203e-09
2.1737956e-09
2.229448e-09
2.3011426e-09
2.391407e-09
2.5034244e-09
2.6411553e-09
2.8078795e-09
3.0126049e-09
3.2718043e-09
3.6495665e-08
5.053028e-08
5.4307228e-08
4.2881537e-08
3.4802705e-08
2.8982501e-08
2.4675698e-08
1.1105529e-09
2.0990915e-09
2.5319046e-09
2.7534317e-09
2.8601622e-09
2.9059274e-09
2.9193273e-09
2.9144671e-09
2.8978502e-09
2.8812051e-09
2.8609871e-09
2.8280583e-09
2.7881959e-09
2.740576e-09
2.686785e-09
2.6289769e-09
2.5691023e-09
2.5083657e-09
2.4482855e-09
2.3903166e-09
2.3356208e-09
2.2851517e-09
2.2398551e-09
2.2002964e-09
2.1669645e-09
2.1404683e-09
2.1212557e-09
2.109741e-09
2.1066808e-09
2.1125734e-09
2.1283869e-09
2.155124e-09
2.1940624e-09
2.2468456e-09
2.3155465e-09
2.4027866e-09
2.5118369e-09
2.6467661e-09
2.8109798e-09
3.0137248e-09
3.2706621e-09
3.6745504e-08
5.0904037e-08
5.4236481e-08
4.2908802e-08
3.4842732e-08
2.900222e-08
2.4681606e-08
8.663945e-10
1.9944282e-09
2.5503972e-09
2.8056857e-09
2.9275127e-09
2.9754083e-09
2.9836544e-09
2.970549e-09
2.9450326e-09
2.911134e-09
2.8811628e-09
2.8456026e-09
2.7998034e-09
2.7486102e-09
2.6918578e-09
2.630718e-09
2.5671536e-09
2.5031084e-09
2.4402045e-09
2.3798301e-09
2.3230913e-09
2.270923e-09
2.2242647e-09
2.1837036e-09
2.1497559e-09
2.1230284e-09
2.1039411e-09
2.0929085e-09
2.0905793e-09
2.0974205e-09
2.1143082e-09
2.1421809e-09
2.1822701e-09
2.2361899e-09
2.3060075e-09
2.3943632e-09
2.5045634e-09
2.6407223e-09
2.8063023e-09
3.010796e-09
3.269093e-09
3.6861807e-08
5.0763219e-08
5.4370025e-08
4.3003795e-08
3.4898259e-08
2.9016905e-08
2.4661171e-08
6.5732987e-10
1.8650839e-09
2.53395e-09
2.8398258e-09
2.9845301e-09
3.04106e-09
3.0484728e-09
3.0294498e-09
2.9960673e-09
2.9541675e-09
2.9063766e-09
2.8657528e-09
2.8181784e-09
2.7629274e-09
2.704195e-09
2.6426698e-09
2.5790218e-09
2.5151514e-09
2.4525597e-09
2.3925492e-09
2.3361676e-09
2.2842946e-09
2.2378409e-09
2.1973605e-09
2.1633458e-09
2.1363989e-09
2.116952e-09
2.1054172e-09
2.1024881e-09
2.1086509e-09
2.1248264e-09
2.1519958e-09
2.1914333e-09
2.2447972e-09
2.3141982e-09
2.4023242e-09
2.5125296e-09
2.6489962e-09
2.8152336e-09
3.0209621e-09
3.2805199e-09
3.7165903e-08
5.0998158e-08
5.4313294e-08
4.3008818e-08
3.4919868e-08
2.9030034e-08
2.4654819e-08
5.1289515e-10
1.6582273e-09
2.4419976e-09
2.8461146e-09
3.0211696e-09
3.0940398e-09
3.1069357e-09
3.0863187e-09
3.0475867e-09
2.9988976e-09
2.944175e-09
2.8852395e-09
2.8358572e-09
2.7784022e-09
2.7155015e-09
2.6507497e-09
2.5855216e-09
2.5200925e-09
2.4560277e-09
2.3946982e-09
2.3371868e-09
2.2843893e-09
2.2371911e-09
2.196123e-09
2.1616614e-09
2.1343777e-09
2.1146708e-09
2.1029425e-09
2.0998644e-09
2.1059174e-09
2.1220212e-09
2.1491571e-09
2.188609e-09
2.2420517e-09
2.3116227e-09
2.4000511e-09
2.5107443e-09
2.6479375e-09
2.8151479e-09
3.022343e-09
3.2833787e-09
3.7663394e-08
5.1364627e-08
5.4245169e-08
4.3021589e-08
3.4950606e-08
2.9052726e-08
2.4657853e-08
3.8546569e-10
1.4719822e-09
2.3313064e-09
2.8125214e-09
3.0383822e-09
3.1329156e-09
3.1565702e-09
3.1385915e-09
3.0973876e-09
3.0436769e-09
2.9830976e-09
2.9183975e-09
2.853742e-09
2.7952506e-09
2.730753e-09
2.6630237e-09
2.5951126e-09
2.5287341e-09
2.4638842e-09
2.4019328e-09
2.343933e-09
2.2907349e-09
2.2431943e-09
2.2018145e-09
2.1670557e-09
2.1394819e-09
2.11949e-09
2.1074812e-09
2.1041396e-09
2.1099505e-09
2.125853e-09
2.1528438e-09
2.1922336e-09
2.2457325e-09
2.3155271e-09
2.4044157e-09
2.5158953e-09
2.654301e-09
2.823201e-09
3.0328869e-09
3.2968462e-09
3.8453097e-08
5.2012303e-08
5.4061174e-08
4.2976843e-08
3.4954849e-08
2.9068008e-08
2.4666217e-08
2.8139517e-10
1.3434765e-09
2.1666732e-09
2.7328898e-09
3.0352549e-09
3.1556188e-09
3.1949317e-09
3.184125e-09
3.1439391e-09
3.0875007e-09
3.0224135e-09
2.9526757e-09
2.880333e-09
2.8117601e-09
2.7461347e-09
2.6767367e-09
2.6061132e-09
2.536837e-09
2.4708138e-09
2.4078028e-09
2.3488893e-09
2.2949213e-09
2.2467465e-09
2.2048458e-09
2.169666e-09
2.141754e-09
2.1214869e-09
2.1092573e-09
2.1057411e-09
2.1114208e-09
2.1272447e-09
2.1542201e-09
2.1936843e-09
2.2473893e-09
2.3175838e-09
2.4071569e-09
2.5197247e-09
2.6597415e-09
2.8308237e-09
3.0436404e-09
3.3113756e-09
3.971768e-08
5.3070055e-08
5.3738531e-08
4.2876327e-08
3.4939709e-08
2.9080929e-08
2.4681639e-08
1.9943067e-10
1.2328365e-09
2.0020559e-09
2.6387685e-09
2.9944196e-09
3.162837e-09
3.2215725e-09
3.2219162e-09
3.18624e-09
3.1296576e-09
3.0617369e-09
2.9879968e-09
2.9114015e-09
2.8335523e-09
2.7624682e-09
2.6921666e-09
2.620167e-09
2.5487644e-09
2.4800549e-09
2.4161015e-09
2.3563599e-09
2.3016845e-09
2.2529256e-09
2.2105441e-09
2.1749724e-09
2.1467434e-09
2.1262187e-09
2.1137841e-09
2.110115e-09
2.1156947e-09
2.1314885e-09
2.1585226e-09
2.1981738e-09
2.2522537e-09
2.3230998e-09
2.4137287e-09
2.5279279e-09
2.6703261e-09
2.8446426e-09
3.0620508e-09
3.3355033e-09
4.1759469e-08
5.4751889e-08
5.3216892e-08
4.2689023e-08
3.48893e-08
2.9083039e-08
2.4699767e-08
1.3642767e-10
1.139255e-09
1.8812631e-09
2.5049753e-09
2.9247544e-09
3.1552168e-09
3.2364052e-09
3.2515293e-09
3.2239205e-09
3.1701487e-09
3.1014787e-09
3.025038e-09
2.9449705e-09
2.8635267e-09
2.7820764e-09
2.7096696e-09
2.6368177e-09
2.5641183e-09
2.4935821e-09
2.4269151e-09
2.3662347e-09
2.3107154e-09
2.2612426e-09
2.2182716e-09
2.1822264e-09
2.153626e-09
2.132812e-09
2.1201578e-09
2.116332e-09
2.1218158e-09
2.1375916e-09
2.1647064e-09
2.2045874e-09
2.2591243e-09
2.3307731e-09
2.4227226e-09
2.5389923e-09
2.684449e-09
2.8629739e-09
3.0863789e-09
3.3674523e-09
4.5045947e-08
5.7328064e-08
5.2445146e-08
4.2389686e-08
3.4794038e-08
2.9071849e-08
2.4720745e-08
8.7996255e-11
1.0619917e-09
1.7801741e-09
2.3562149e-09
2.8432668e-09
3.1125421e-09
3.2408628e-09
3.2742564e-09
3.2583083e-09
3.2106035e-09
3.1437145e-09
3.0662486e-09
2.9837024e-09
2.8992406e-09
2.8147084e-09
2.7316057e-09
2.65869e-09
2.5851641e-09
2.513362e-09
2.4450932e-09
2.3816793e-09
2.3251103e-09
2.2747302e-09
2.2309616e-09
2.1942275e-09
2.1650375e-09
2.1437159e-09
2.1306169e-09
2.126407e-09
2.131564e-09
2.1470933e-09
2.1740738e-09
2.2140003e-09
2.2688687e-09
2.3412955e-09
2.4347012e-09
2.5534193e-09
2.7026519e-09
2.8865485e-09
3.117738e-09
3.4089179e-09
5.0189277e-08
6.1139294e-08
5.1384718e-08
4.195228e-08
3.4640497e-08
2.9041108e-08
2.4741815e-08
4.8116707e-11
9.9646594e-10
1.6900421e-09
2.2388092e-09
2.7307757e-09
3.0556042e-09
3.2385101e-09
3.2955718e-09
3.2949676e-09
3.2566017e-09
3.1940985e-09
3.1173241e-09
3.0331514e-09
2.9459046e-09
2.8581859e-09
2.7715907e-09
2.6890317e-09
2.614901e-09
2.5417591e-09
2.471726e-09
2.4063985e-09
2.3466594e-09
2.2945448e-09
2.249328e-09
2.2112456e-09
2.1808114e-09
2.1583457e-09
2.1441715e-09
2.1389687e-09
2.1432079e-09
2.1579274e-09
2.1842488e-09
2.2237559e-09
2.2785821e-09
2.3515518e-09
2.4463875e-09
2.5678347e-09
2.7215511e-09
2.9120842e-09
3.153076e-09
3.4572206e-09
5.801332e-08
6.0437458e-08
5.0014125e-08
4.1347866e-08
3.4407269e-08
2.8976868e-08
2.4753979e-08
2.1435491e-08
9.1659473e-10
1.6023727e-09
2.1413245e-09
2.5994674e-09
2.9968296e-09
3.2135712e-09
3.321118e-09
3.3381376e-09
3.3108808e-09
3.2540739e-09
3.1787355e-09
3.0930047e-09
3.0024549e-09
2.9106909e-09
2.8199155e-09
2.7315143e-09
2.6493265e-09
2.5745945e-09
2.5023404e-09
2.4344775e-09
2.3720061e-09
2.3162054e-09
2.2684581e-09
2.2282379e-09
2.1958007e-09
2.1714906e-09
2.1555833e-09
2.1487951e-09
2.1515809e-09
2.1650181e-09
2.1902804e-09
2.2290573e-09
2.2836501e-09
2.3571433e-09
2.4536419e-09
2.5784274e-09
2.7377591e-09
2.936742e-09
3.1902729e-09
3.5111675e-09
5.8405102e-08
5.7234555e-08
4.8353194e-08
4.0558193e-08
3.4071062e-08
2.8860039e-08
2.4743119e-08
2.1476478e-08
8.7876571e-10
1.541398e-09
2.0585551e-09
2.4887992e-09
2.8906083e-09
3.1564094e-09
3.3013764e-09
3.3457845e-09
3.331835e-09
3.2835838e-09
3.212768e-09
3.1283425e-09
3.036833e-09
2.9428064e-09
2.8492139e-09
2.7579009e-09
2.6701438e-09
2.5905685e-09
2.5174471e-09
2.4482011e-09
2.3839461e-09
2.3262386e-09
2.2757484e-09
2.2337301e-09
2.1998571e-09
2.1742433e-09
2.1571131e-09
2.1492181e-09
2.1509931e-09
2.163556e-09
2.1881422e-09
2.2265695e-09
2.2813471e-09
2.3558914e-09
2.4548025e-09
2.5840658e-09
2.7507356e-09
2.9606868e-09
3.2303788e-09
3.572921e-09
5.3042596e-08
5.3897797e-08
4.6504341e-08
3.9613634e-08
3.363467e-08
2.8686261e-08
2.4704706e-08
2.1509756e-08
8.5091935e-10
1.4934748e-09
1.9900675e-09
2.4034201e-09
2.7738753e-09
3.0940556e-09
3.262869e-09
3.3458496e-09
3.346524e-09
3.3084072e-09
3.2437943e-09
3.1622494e-09
3.0710041e-09
2.9754832e-09
2.8794856e-09
2.7853696e-09
2.694738e-09
2.6085736e-09
2.5324935e-09
2.4621249e-09
2.3962532e-09
2.3366665e-09
2.2841656e-09
2.2392747e-09
2.203546e-09
2.1763239e-09
2.1576504e-09
2.1483383e-09
2.1487962e-09
2.1601938e-09
2.1838381e-09
2.2217e-09
2.2765407e-09
2.3521921e-09
2.4538861e-09
2.5885229e-09
2.7642261e-09
2.9879517e-09
3.2780693e-09
3.648139e-09
4.8567056e-08
5.0751499e-08
4.4634696e-08
3.8590817e-08
3.3126642e-08
2.8464584e-08
2.4641551e-08
2.1536227e-08
8.3202506e-10
1.4578288e-09
1.9376285e-09
2.336887e-09
2.6827029e-09
3.0191403e-09
3.2222149e-09
3.3300813e-09
3.3554167e-09
3.3279803e-09
3.2704763e-09
3.1929849e-09
3.1031886e-09
3.0070116e-09
2.9088688e-09
2.8121188e-09
2.7187343e-09
2.6297923e-09
2.5462905e-09
2.4746651e-09
2.4071092e-09
2.3455563e-09
2.2909522e-09
2.2438763e-09
2.2051564e-09
2.1760613e-09
2.1555117e-09
2.1444176e-09
2.143159e-09
2.1529774e-09
2.1752731e-09
2.2122036e-09
2.2668309e-09
2.3435041e-09
2.4482518e-09
2.5891521e-09
2.7757449e-09
3.0164463e-09
3.3318706e-09
3.7360447e-09
4.4996576e-08
4.8026915e-08
4.2902585e-08
3.7569144e-08
3.2574155e-08
2.8198155e-08
2.4549e-08
2.1532917e-08
8.2376622e-10
1.4348114e-09
1.9017634e-09
2.2893576e-09
2.6244096e-09
2.9452821e-09
3.1831389e-09
3.3055881e-09
3.3551001e-09
3.3371795e-09
3.2865467e-09
3.2133489e-09
3.1256988e-09
3.029986e-09
2.9310361e-09
2.8310055e-09
2.7338394e-09
2.6415144e-09
2.5552732e-09
2.479081e-09
2.410777e-09
2.3475922e-09
2.2908752e-09
2.2414236e-09
2.2002141e-09
2.1684045e-09
2.1457459e-09
2.1326455e-09
2.129435e-09
2.137433e-09
2.1581782e-09
2.1939554e-09
2.2482443e-09
2.3259895e-09
2.4341942e-09
2.5824153e-09
2.7819817e-09
3.0430763e-09
3.3886847e-09
3.8327927e-09
4.2339808e-08
4.5880759e-08
4.1436774e-08
3.6620619e-08
3.2002946e-08
2.7888819e-08
2.4420806e-08
4.5245755e-11
8.5591002e-10
1.4359029e-09
1.884117e-09
2.2585169e-09
2.5824067e-09
2.888992e-09
3.1384852e-09
3.2663974e-09
3.3281258e-09
3.318628e-09
3.273716e-09
3.2052178e-09
3.1190741e-09
3.0211115e-09
2.9195034e-09
2.8194884e-09
2.7217436e-09
2.6280087e-09
2.5397782e-09
2.4603321e-09
2.3904086e-09
2.3268529e-09
2.2700858e-09
2.2204719e-09
2.1784669e-09
2.1453102e-09
2.121652e-09
2.107611e-09
2.1035166e-09
2.1106925e-09
2.1307678e-09
2.1660145e-09
2.2203089e-09
2.29921e-09
2.4107942e-09
2.5663269e-09
2.7791318e-09
3.0610241e-09
3.4366224e-09
3.9177306e-09
4.0594041e-08
4.4396069e-08
4.0317493e-08
3.5790711e-08
3.1425835e-08
2.7533268e-08
2.4249574e-08
8.0104986e-11
8.639352e-10
1.4340945e-09
1.8801721e-09
2.2545209e-09
2.5779012e-09
2.8800859e-09
3.1365749e-09
3.2691752e-09
3.3371251e-09
3.3384273e-09
3.298244e-09
3.2307496e-09
3.1472846e-09
3.0543891e-09
2.9543991e-09
2.8531646e-09
2.7544795e-09
2.6596455e-09
2.5699874e-09
2.4866667e-09
2.408916e-09
2.3425349e-09
2.2820017e-09
2.2293387e-09
2.185323e-09
2.1498064e-09
2.1225107e-09
2.105392e-09
2.097929e-09
2.101797e-09
2.1172244e-09
2.1472963e-09
2.1962341e-09
2.2708647e-09
2.3814561e-09
2.5423015e-09
2.7700386e-09
3.0794574e-09
3.4975614e-09
4.0338259e-09
3.9748643e-08
4.3596469e-08
3.956696e-08
3.5082388e-08
3.0831822e-08
2.7119445e-08
2.4026848e-08
1.2725298e-10
8.8243962e-10
1.4444805e-09
1.8921817e-09
2.2703721e-09
2.595786e-09
2.9001565e-09
3.1511759e-09
3.2835504e-09
3.3555449e-09
3.3618296e-09
3.3235934e-09
3.2601844e-09
3.1791711e-09
3.0885454e-09
2.9932823e-09
2.8949764e-09
2.7967398e-09
2.7004162e-09
2.6081054e-09
2.5222752e-09
2.4408999e-09
2.3667874e-09
2.3007838e-09
2.2440011e-09
2.193612e-09
2.1520897e-09
2.1181269e-09
2.0926492e-09
2.0780311e-09
2.072139e-09
2.0816649e-09
2.111021e-09
2.1643382e-09
2.2461482e-09
2.3636743e-09
2.5390875e-09
2.7917126e-09
3.1391978e-09
3.6088952e-09
4.201899e-09
3.9777151e-08
4.3461648e-08
3.915888e-08
3.4456794e-08
3.0188171e-08
2.6632363e-08
2.3749096e-08
1.8742915e-10
9.1317358e-10
1.4688699e-09
1.9204903e-09
2.3036197e-09
2.6327401e-09
2.9421946e-09
3.1778233e-09
3.3164707e-09
3.3868705e-09
3.3868253e-09
3.3504714e-09
3.2911709e-09
3.2160593e-09
3.1296699e-09
3.0360094e-09
2.9382184e-09
2.8393255e-09
2.7411286e-09
2.6456512e-09
2.5557567e-09
2.46814e-09
2.3865065e-09
2.3107488e-09
2.2404117e-09
2.1782806e-09
2.1282359e-09
2.0903073e-09
2.0683264e-09
2.0507595e-09
2.0477024e-09
2.0619769e-09
2.0943656e-09
2.1489659e-09
2.2339117e-09
2.3625794e-09
2.5554139e-09
2.8383214e-09
3.2343907e-09
3.7700889e-09
4.4321967e-09
4.063992e-08
4.3929584e-08
3.9024425e-08
3.3838869e-08
2.9449915e-08
2.6062327e-08
2.3421829e-08
2.6050473e-10
9.5733102e-10
1.5076906e-09
1.9631117e-09
2.3495985e-09
2.6821113e-09
3.0154876e-09
3.2361196e-09
3.3555591e-09
3.4155273e-09
3.4115669e-09
3.3785005e-09
3.3234531e-09
3.2514969e-09
3.1671371e-09
3.0741673e-09
2.9753868e-09
2.8729669e-09
2.7674034e-09
2.6583151e-09
2.5449497e-09
2.4273473e-09
2.316233e-09
2.2256307e-09
2.1574445e-09
2.1088817e-09
2.0759111e-09
2.0574956e-09
2.0444263e-09
2.0386053e-09
2.0427153e-09
2.0587156e-09
2.0901841e-09
2.1431336e-09
2.2275803e-09
2.3597463e-09
2.565045e-09
2.8771867e-09
3.3252117e-09
3.9279208e-09
4.6449056e-09
4.2298552e-08
4.4926743e-08
3.9072112e-08
3.3140507e-08
2.8583669e-08
2.5417656e-08
2.3063353e-08
3.4570957e-10
1.0153153e-09
1.5602167e-09
2.0159613e-09
2.4141138e-09
2.7933793e-09
3.0987598e-09
3.274101e-09
3.376787e-09
3.4238579e-09
3.4277627e-09
3.3971932e-09
3.3425495e-09
3.2675529e-09
3.1742448e-09
3.0620351e-09
2.9263883e-09
2.7589375e-09
2.5546364e-09
2.3087748e-09
1.7630081e-09
1.5675508e-09
1.8657624e-09
1.9240012e-09
1.8904962e-09
1.6798281e-09
1.418821e-09
1.8647512e-09
1.9039642e-09
1.9317321e-09
1.9496744e-09
1.9707696e-09
2.0053938e-09
2.058867e-09
2.1436543e-09
2.2790421e-09
2.4961131e-09
2.8372432e-09
3.3343327e-09
3.9870208e-09
4.7102362e-09
4.4651243e-08
4.6348762e-08
3.9182773e-08
3.2281974e-08
2.7585709e-08
2.4728876e-08
2.2702214e-08
4.4074773e-10
1.0850178e-09
1.6208295e-09
2.0929787e-09
2.4958849e-09
2.8569255e-09
3.1125689e-09
3.2537031e-09
3.3435396e-09
3.3856359e-09
3.3827211e-09
3.3344471e-09
3.2352898e-09
3.0749701e-09
2.8430811e-09
2.5433433e-09
2.1586306e-09
1.5122591e-09
1.8421552e-09
2.0482158e-09
2.1052532e-09
2.1211546e-09
2.1094507e-09
2.0834224e-09
2.0509973e-09
2.017979e-09
1.9904201e-09
1.9628486e-09
1.9438907e-09
1.9267418e-09
1.9194998e-09
1.9219244e-09
1.9394322e-09
1.8534616e-09
2.0470728e-09
2.2348773e-09
2.4792326e-09
2.8617432e-09
3.4268692e-09
4.1309747e-09
4.8384563e-09
4.7604322e-08
4.8108827e-08
3.925014e-08
3.123677e-08
2.6498973e-08
2.4045704e-08
2.2370729e-08
5.385281e-10
1.1556251e-09
1.6996968e-09
2.1489099e-09
2.5145121e-09
2.7947641e-09
3.0019506e-09
3.1092477e-09
3.1296864e-09
3.0564567e-09
2.8772841e-09
2.6062273e-09
2.2997772e-09
2.0059424e-09
1.6406093e-09
1.2385682e-09
1.590068e-09
1.9750855e-09
2.0715067e-09
2.1345423e-09
2.137389e-09
2.1127848e-09
2.0797726e-09
2.0413224e-09
2.0034444e-09
1.9691347e-09
1.9381434e-09
1.9139998e-09
1.8954321e-09
1.8844566e-09
1.8834888e-09
1.8934802e-09
1.9183241e-09
1.9642177e-09
2.0440118e-09
2.1800431e-09
2.4086505e-09
2.7793726e-09
3.204447e-09
3.5593835e-09
3.5285379e-09
5.1289716e-08
5.0408881e-08
3.9264209e-08
3.0077893e-08
2.5424945e-08
2.3446695e-08
2.2121527e-08
5.801509e-10
1.1566337e-09
1.6305557e-09
1.966735e-09
2.1851713e-09
2.2904482e-09
2.2808503e-09
2.148762e-09
1.9528485e-09
1.7767806e-09
1.6533337e-09
1.5424774e-09
1.3758381e-09
1.1633175e-09
1.1769425e-09
1.7403599e-09
1.9549446e-09
2.0607143e-09
2.1194529e-09
2.1143565e-09
2.0918405e-09
2.0563729e-09
2.0152764e-09
1.9720471e-09
1.9328864e-09
1.898586e-09
1.8667834e-09
1.8434527e-09
1.8241762e-09
1.8127904e-09
1.8109408e-09
1.8193113e-09
1.8417602e-09
1.8848781e-09
1.9616246e-09
2.1002581e-09
2.353882e-09
2.8157243e-09
3.5214208e-09
4.2692362e-09
4.7878796e-09
6.0436838e-08
5.7041917e-08
4.0869706e-08
2.9536927e-08
2.4804841e-08
2.3273982e-08
2.2258614e-08
2.1141416e-08
2.6288375e-10
5.1627238e-10
7.0219549e-10
8.5000878e-10
9.737394e-10
1.0793868e-09
1.1676971e-09
1.2283415e-09
1.2480445e-09
1.2222743e-09
1.1200564e-09
9.9331484e-10
1.2819765e-09
1.776056e-09
1.9720465e-09
2.0901585e-09
2.1517485e-09
2.1498469e-09
2.1245338e-09
2.085219e-09
2.0408231e-09
1.9928905e-09
1.9445478e-09
1.9023439e-09
1.8658653e-09
1.8311822e-09
1.80677e-09
1.7850783e-09
1.7720006e-09
1.7684944e-09
1.7746921e-09
1.7942645e-09
1.8349558e-09
1.9095274e-09
2.0473948e-09
2.3158669e-09
2.8388279e-09
3.6370524e-09
4.3757728e-09
4.7878022e-09
6.8075306e-08
6.1677803e-08
4.110502e-08
2.8526313e-08
2.4095593e-08
2.3106808e-08
2.2385837e-08
2.1427067e-08
8.6598418e-12
2.9551555e-10
5.3625726e-10
7.3316188e-10
8.8799647e-10
1.0035781e-09
1.0783076e-09
1.1078805e-09
1.0795726e-09
9.8759665e-10
9.7729687e-10
1.3322673e-09
1.8155972e-09
2.026171e-09
2.1675092e-09
2.2421251e-09
2.2496745e-09
2.2290159e-09
2.1883474e-09
2.1380006e-09
2.0877551e-09
2.0346293e-09
1.9816049e-09
1.9361895e-09
1.897086e-09
1.8586139e-09
1.8327406e-09
1.8078272e-09
1.7928693e-09
1.7878151e-09
1.7923442e-09
1.8105388e-09
1.8495953e-09
1.9254984e-09
2.0669541e-09
2.4399143e-09
3.2370965e-09
4.2446318e-09
4.9912415e-09
5.2680911e-09
7.4336203e-08
6.4550874e-08
4.0160713e-08
2.7354991e-08
2.358614e-08
2.3259395e-08
2.282673e-08
2.2002584e-08
2.3017262e-11
3.0310768e-10
5.3718257e-10
7.2481395e-10
8.6690674e-10
9.6684811e-10
1.0234718e-09
1.0332539e-09
1.0061003e-09
1.1644187e-09
3.0372511e-09
4.221212e-09
4.5713178e-09
4.7906034e-09
4.9600886e-09
5.0990427e-09
5.2083877e-09
5.278602e-09
5.3206579e-09
5.3133786e-09
5.2907303e-09
5.2249173e-09
5.1296026e-09
5.0377197e-09
4.9483546e-09
4.8369388e-09
4.7704547e-09
4.6885329e-09
4.6446995e-09
4.6311766e-09
4.648436e-09
4.7123852e-09
4.8457255e-09
5.098478e-09
5.5803915e-09
8.936473e-09
1.5919407e-08
2.1451597e-08
2.4285282e-08
2.4326388e-08
7.7973955e-08
6.7437433e-08
3.9231016e-08
2.8231158e-08
2.6793718e-08
2.8622505e-08
2.903457e-08
2.8368707e-08
2.7485144e-08
3.1953867e-10
8.1266119e-10
4.9293386e-09
8.3067994e-09
1.4416246e-08
2.445476e-08
3.9007673e-08
5.8261178e-08
8.1682939e-08
1.0827088e-07
1.3669761e-07
1.6548519e-07
1.926446e-07
1.9255206e-07
2.3244451e-07
2.4025852e-07
2.411533e-07
2.3762583e-07
2.3170218e-07
2.2377487e-07
2.1414528e-07
2.0327544e-07
1.9302385e-07
1.8341599e-07
1.7327973e-07
1.6580378e-07
1.5795942e-07
1.5225428e-07
1.4802542e-07
1.4520136e-07
1.4426308e-07
1.4580008e-07
1.5125326e-07
1.6410167e-07
2.2276757e-07
3.4926169e-07
4.6332171e-07
4.9503239e-07
4.7451455e-07
6.9204149e-08
6.957516e-08
3.9615261e-08
4.5471945e-08
6.3873005e-08
8.8469542e-08
1.0210582e-07
7.8048728e-09
1.6599416e-08
3.0638957e-08
9.8792594e-08
2.4343405e-07
4.8421349e-07
8.1104622e-07
1.1816598e-06
1.5558415e-06
1.9194601e-06
2.2764131e-06
2.6326543e-06
2.9872479e-06
3.3319616e-06
3.6567878e-06
3.9526051e-06
4.2141599e-06
4.4321317e-06
4.3823177e-06
4.3210742e-06
4.2423545e-06
3.4353134e-06
3.778308e-06
3.4058559e-06
3.1127773e-06
2.8888177e-06
2.6926504e-06
2.5409824e-06
2.3993903e-06
2.2909152e-06
2.2034134e-06
2.1351205e-06
2.090184e-06
2.0725131e-06
2.092883e-06
2.1744537e-06
2.5081087e-06
3.1104851e-06
3.1378281e-06
3.0473063e-06
3.1853572e-06
6.2625148e-08
7.2124673e-08
5.3505876e-08
1.9240154e-07
4.1302815e-07
5.6031393e-08
1.0754136e-07
1.9726071e-07
3.0139121e-07
1.3776608e-07
2.2149614e-05
3.4625803e-05
4.788472e-05
6.128162e-05
7.2849664e-05
8.1487643e-05
8.6996049e-05
8.9667722e-05
8.9950643e-05
8.8448215e-05
8.5739051e-05
8.2278606e-05
7.8423466e-05
7.4411734e-05
7.0278312e-05
1.0891346e-06
2.7860775e-06
4.0931621e-06
5.0273768e-06
5.8039346e-06
6.4148048e-06
6.8039832e-06
6.7688891e-06
5.5022154e-06
4.7033766e-06
6.5244372e-06
7.202713e-06
7.31407e-06
7.2710036e-06
7.1953775e-06
7.0910963e-06
6.9048026e-06
6.4024287e-06
3.5076837e-06
8.287295e-05
0.00013073488
0.00013581198
0.00012704118
5.7611915e-08
8.0613765e-08
1.8203291e-07
1.2488108e-06
1.615568e-07
8.2878763e-06
1.6936568e-05
3.1904916e-05
5.1386959e-05
7.4192867e-05
9.4953413e-05
0.00011296353
0.00013121228
0.00015512163
0.00017052569
0.00017735015
0.00017947571
0.00017829469
0.0001749033
0.00017025117
0.00016511845
0.00015998803
0.00015509704
0.00015035867
0.00014552688
0.00014129801
0.00013517855
0.00012815249
0.00012274827
0.00011859095
0.00011599212
0.00011532348
0.00011551975
0.00011528264
0.00011763645
0.00011975393
0.00012470837
0.00013056928
0.00013677263
0.00014424348
0.00015393637
0.00016836006
0.00019363762
0.00024111966
0.00015462162
0.00015691237
0.00016612757
0.0001526218
5.5025248e-08
1.5561974e-07
1.0826473e-06
7.1071371e-06
1.8326172e-05
3.6608695e-05
5.8600794e-05
8.3230747e-05
0.00010701306
0.00014240343
0.0001658957
0.00018349636
0.0001972848
0.00020682723
0.00021229407
0.0002146739
0.00021470713
0.00021325699
0.00021128214
0.00020935141
0.00020788955
0.00020719396
0.00020742131
0.00020839033
0.00020886855
0.00020898431
0.00020888297
0.00020986313
0.00021299199
0.00021655031
0.00022106388
0.00022369964
0.00021986663
0.00021716462
0.00022642344
0.00023751692
0.00025435022
0.00025632403
0.00024151174
0.00022907483
0.00021547448
0.00020232353
0.00018938234
0.00018490216
0.00020859328
0.0002382852
0.00024650393
0.00023463809
5.2142009e-08
6.7187812e-07
5.7435712e-06
2.1600282e-05
4.1653978e-05
6.7466268e-05
9.7115073e-05
0.00013101627
0.00015360066
0.00017143241
0.00018587092
0.00019644773
0.0002038795
0.00020623724
0.00020235054
0.00019816654
0.00019468878
0.00019307038
0.00019452047
0.00019887793
0.00020513698
0.00021279895
0.00022170923
0.00023129144
0.00023299588
0.00023482038
0.00023858645
0.00024460958
0.00025227367
0.00026012449
0.00026689674
0.00027447481
0.00026540639
0.00020029553
0.00020772764
0.00021587857
0.0002445933
0.00024730748
0.0002489596
0.00025076904
0.00025315868
0.00025665469
0.00026304099
0.00028164458
0.00032842716
0.00031534461
0.00031993275
0.00037244307
5.6387231e-08
3.0517939e-06
1.4144328e-05
3.5083831e-05
6.0967087e-05
9.7610248e-05
0.00012431895
0.00014526249
0.00016087586
0.00017168534
0.00017926586
0.0001778008
0.00017496394
0.00017315203
0.00017209938
0.00017217553
0.000174505
0.00017935139
0.00018212441
0.00018413854
0.00018720255
0.0001902982
0.00019071395
0.00018188892
0.00014295273
0.00012919567
0.0001310905
0.00013597677
0.00014237124
0.00014975267
0.00015955037
0.00019088473
0.00023904909
0.00029605084
0.00031680812
0.00032823692
0.00033876824
0.00035034806
0.00036153917
0.0003728618
0.00038480744
0.00039814583
0.00041519686
0.00044596862
0.00048835098
0.00031713775
0.00032541578
0.00056114035
8.4143176e-08
6.3626446e-06
1.9083572e-05
4.4687083e-05
7.8949958e-05
0.00010715677
0.00012806012
0.00014171274
0.00015043064
0.00015484661
0.00015419504
0.00015107563
0.00014656143
0.00013972596
0.00013037607
0.00012000331
0.00010966279
0.00010079911
9.6292785e-05
9.623344e-05
9.8633881e-05
0.00010216411
0.00010638383
0.00011114449
0.00011652377
0.00012207307
0.00012824349
0.00013855526
0.00015877018
0.00018342587
0.00022282732
0.00026539694
0.00029413259
0.00032400119
0.00034332945
0.00036083767
0.00037861617
0.00039652291
0.00041461658
0.00043310103
0.00045214183
0.00047218456
0.00049471767
0.000523113
0.00050284971
0.00034898781
0.00035974717
0.00059462677
1.6147698e-07
7.4533802e-06
2.108625e-05
5.2316625e-05
8.2501685e-05
0.00010384125
0.00011654836
0.00012137329
0.00012166619
0.00011822959
0.00011171315
0.0001029669
9.2791935e-05
8.3576839e-05
7.8077167e-05
7.5984495e-05
7.6093844e-05
7.7559646e-05
7.9948241e-05
8.3041923e-05
8.6762043e-05
9.1125559e-05
9.6145207e-05
0.00010188085
0.00010893451
0.00011630915
0.00012416945
0.00013503894
0.00015126406
0.00017142695
0.00020355588
0.00024126781
0.00027263358
0.00031337017
0.00034799645
0.00037554987
0.00040273803
0.00042454829
0.00044582883
0.00046664721
0.0004877264
0.00050978452
0.00053417064
0.0005605633
0.00039112293
0.00036192834
0.00037588795
0.00056004751
1.8439368e-07
7.2567122e-06
1.7017419e-05
4.8512358e-05
7.4040889e-05
8.2858028e-05
8.6143926e-05
8.5968972e-05
8.3057085e-05
7.8096621e-05
7.2224536e-05
6.7054425e-05
6.3523794e-05
6.1684222e-05
6.1284307e-05
6.2140909e-05
6.4024867e-05
6.6664177e-05
6.9782724e-05
7.3354811e-05
7.73988e-05
8.2015743e-05
8.7142387e-05
9.2693136e-05
9.8750259e-05
0.00010522243
0.00011218937
0.00012010396
0.00012948274
0.00014073086
0.00015816697
0.00018331556
0.00020795641
0.00024277991
0.00027426917
0.00030659017
0.00034374362
0.00037526768
0.00040840663
0.00044101565
0.00047216001
0.00050132746
0.00052602438
0.00051602631
0.00034832143
0.00035123688
0.00036322459
0.00045058515
1.8689731e-07
6.7120388e-06
1.5970576e-05
3.075738e-05
5.0382558e-05
5.5699379e-05
5.7888593e-05
5.7317554e-05
5.5427539e-05
5.3381896e-05
5.1771046e-05
5.0825377e-05
5.0517776e-05
5.0709987e-05
5.1389732e-05
5.2642202e-05
5.4481024e-05
5.6834308e-05
5.9591264e-05
6.287031e-05
6.6646047e-05
7.1015266e-05
7.5821653e-05
8.0932166e-05
8.6331177e-05
9.2118481e-05
9.8405697e-05
0.00010526588
0.0001128106
0.00012087886
0.00013007016
0.00014128193
0.00015428052
0.00017134464
0.00019019925
0.00021153366
0.00023785893
0.00026175075
0.00028835966
0.0003159344
0.0003435056
0.00036999819
0.00039034582
0.00036195856
0.00031186678
0.00032485951
0.00034350789
0.00036640648
1.6824361e-07
5.3525333e-06
1.4762606e-05
2.4857043e-05
3.4780101e-05
3.9596555e-05
4.1035538e-05
4.0796429e-05
4.0103733e-05
3.9641324e-05
3.9477273e-05
3.961564e-05
4.0064298e-05
4.0745678e-05
4.1748351e-05
4.3152104e-05
4.4944805e-05
4.7101742e-05
4.9580058e-05
5.257941e-05
5.6050955e-05
6.011317e-05
6.4506931e-05
6.9139308e-05
7.4041039e-05
7.9327992e-05
8.5109535e-05
9.1486259e-05
9.8592237e-05
0.00010608488
0.00011428161
0.00012329172
0.00013325825
0.00014371404
0.00015493982
0.00016673023
0.00017932412
0.0001922825
0.00020612465
0.00022096307
0.00023683768
0.00025342289
0.00026875293
0.00026993035
0.00028166509
0.00030258641
0.00032377562
0.00034041071
1.0255756e-07
4.4677903e-06
1.2041784e-05
1.946928e-05
2.5915161e-05
2.8656776e-05
2.8935185e-05
2.851584e-05
2.8161884e-05
2.8207302e-05
2.8422989e-05
2.8887341e-05
2.9591397e-05
3.0429761e-05
3.1584559e-05
3.3076137e-05
3.4857461e-05
3.6917942e-05
3.9240743e-05
4.2148878e-05
4.5428565e-05
4.9260797e-05
5.3286379e-05
5.7483216e-05
6.1939098e-05
6.6771733e-05
7.2084191e-05
7.7985827e-05
8.4620326e-05
9.155098e-05
9.9390069e-05
0.00010813791
0.00011763847
0.0001274915
0.00013775842
0.00014821985
0.00015873202
0.00016945426
0.00018021795
0.00019111426
0.00020229288
0.00021386087
0.00022619432
0.00024002994
0.00025932269
0.00028014393
0.00029946138
0.00031628445
7.6503947e-08
3.3530158e-06
8.9282687e-06
1.3433655e-05
1.6683825e-05
1.8125885e-05
1.7820704e-05
1.7467845e-05
1.737671e-05
1.7749105e-05
1.8190969e-05
1.8844084e-05
1.9670462e-05
2.0542108e-05
2.1692041e-05
2.3110644e-05
2.475059e-05
2.6605305e-05
2.8670779e-05
3.1326218e-05
3.4241999e-05
3.7711428e-05
4.1234898e-05
4.4907924e-05
4.8856394e-05
5.3193651e-05
5.798895e-05
6.334022e-05
6.9359188e-05
7.5524958e-05
8.2792654e-05
9.0948744e-05
9.9757816e-05
0.00010902703
0.00011868975
0.00012869326
0.00013887689
0.00014916904
0.00015944558
0.0001697684
0.00018025847
0.00019098169
0.00020241731
0.0002157337
0.00023170124
0.00024910546
0.00026103038
0.00027958795
4.7278799e-08
1.8609428e-06
5.0323074e-06
7.3823516e-06
8.7875034e-06
9.1099951e-06
8.7248243e-06
8.5937301e-06
8.6943287e-06
9.290065e-06
9.7499065e-06
1.0358691e-05
1.1069236e-05
1.1755417e-05
1.2681444e-05
1.382328e-05
1.5148781e-05
1.6636189e-05
1.8280398e-05
2.05732e-05
2.2950307e-05
2.5883425e-05
2.8782099e-05
3.1832751e-05
3.516517e-05
3.8885694e-05
4.3022513e-05
4.7647282e-05
5.2832859e-05
5.7918531e-05