/*--------------------------------*- C++ -*----------------------------------*\
| =========                 |                                                 |
| \\      /  F ield         | OpenFOAM: The Open Source CFD Toolbox           |
|  \\    /   O peration     | Version:  2212                                  |
|   \\  /    A nd           | Website:  www.openfoam.com                      |
|    \\/     M anipulation  |                                                 |
\*---------------------------------------------------------------------------*/
FoamFile
{
    version     2.0;
    format      ascii;
    arch        "LSB;label=32;scalar=64";
    class       volScalarField;
    location    "0.05";
    object      omega;
}
// * * * * * * * * * * * * * * * * * * * * * * * * * * * * * * * * * * * * * //

dimensions      [0 0 -1 0 0 0 0];

internalField   nonuniform List<scalar> 
18080
(
335.05273
335.52839
336.6098
338.16593
340.22619
342.81919
345.96101
346.04356
346.39772
346.80751
347.18651
347.48381
347.66529
347.70501
347.58081
347.27265
346.75815
346.01674
345.03509
343.80092
342.31015
340.56588
338.57661
336.35541
333.92108
331.29618
328.50566
325.57564
322.53188
319.40106
316.20799
312.97533
309.72446
306.47573
303.2469
300.05712
296.9238
293.86554
290.90099
288.0487
285.3269
282.75291
280.34269
278.11042
276.06812
274.22614
272.58455
271.14968
335.06209
335.52415
336.54077
337.98437
339.8837
342.26025
345.11288
345.28894
345.69813
346.14107
346.54319
346.85742
347.05029
347.09446
346.9655
346.64032
346.09115
345.30076
344.25508
342.94571
341.37472
339.55058
337.4872
335.20297
332.71902
330.05847
327.24552
324.30446
321.25854
318.13127
314.94477
311.71997
308.47751
305.23802
302.02068
298.84587
295.7326
292.70017
289.76733
286.95203
284.27136
281.74123
279.37607
277.1886
275.18888
273.38506
271.77717
270.37175
335.05793
335.50379
336.51095
337.94464
339.8332
342.19975
345.05181
345.19305
345.59859
346.04539
346.45211
346.7679
346.95791
346.99505
346.85595
346.51963
345.96337
345.16647
344.11861
342.81198
341.24839
339.43619
337.38916
335.12543
332.66504
330.02994
327.24323
324.3282
321.30717
318.20287
315.03674
311.82908
308.60012
305.37029
302.15844
298.98523
295.86963
292.83139
289.8897
287.0631
284.3693
281.82486
279.44484
277.24252
275.2288
273.41276
271.79423
270.37967
335.06461
335.51886
336.52483
337.95306
339.83383
342.193
345.04183
345.12445
345.50389
345.95494
346.37023
346.69285
346.88489
346.91859
346.77123
346.42304
345.85682
345.05157
343.99322
342.67807
341.10495
339.28054
337.21797
334.9346
332.45142
329.79159
326.97933
324.03899
320.99403
317.86813
314.68364
311.46169
308.22302
304.98816
301.77604
298.60667
295.49858
292.47069
289.54142
286.72855
284.04922
281.51948
279.15406
276.96601
274.9658
273.16196
271.55441
270.15003
335.06814
335.51901
336.52145
337.94546
339.82169
342.17788
345.02831
345.06519
345.41371
345.86217
346.28332
346.61128
346.80409
346.83256
346.67447
346.31151
345.72832
344.91272
343.84625
342.52357
340.94807
339.12573
337.06842
334.79386
332.32294
329.67824
326.88319
323.96119
320.93468
317.82647
314.65808
311.44993
308.22228
304.99551
301.78838
298.62123
295.51285
292.48262
289.5495
286.73178
284.04708
281.5119
279.14131
276.94868
274.94481
273.13858
271.52958
270.12482
335.07693
335.53434
336.53813
337.96126
339.83481
342.18807
345.03825
345.04353
345.34412
345.77566
346.20072
346.53472
346.73073
346.75706
346.59113
346.21555
345.61644
344.78314
343.70873
342.37673
340.79122
338.96178
336.90008
334.62169
332.14746
329.49986
326.70233
323.77835
320.75053
317.6418
314.47379
311.26701
308.04175
304.81826
301.6153
298.45303
295.35013
292.32589
289.39915
286.58818
283.91057
281.38288
279.02024
276.83609
274.84111
273.04381
271.44365
270.04804
335.0913
335.55942
336.56604
337.98963
339.86196
342.21367
345.06454
345.04341
345.30323
345.7151
346.13888
346.47842
346.67838
346.70377
346.53094
346.14315
345.528
344.67661
343.58369
342.24511
340.65236
338.81631
336.75191
334.47535
332.00456
329.36212
326.57128
323.65524
320.6362
317.53671
314.37803
311.18037
307.96379
304.74845
301.55307
298.39785
295.30157
292.28368
289.36319
286.55856
283.88759
281.36704
279.01226
276.83691
274.85159
273.0644
271.47463
270.09006
335.11418
335.60145
336.61551
338.04373
339.91851
342.2716
345.12479
345.08334
345.3169
345.69964
346.11597
346.46122
346.6672
346.6949
346.51876
346.122
345.49338
344.62561
343.51502
342.16181
340.56353
338.72096
336.65029
334.37052
331.90109
329.26113
326.47402
323.56287
320.5499
317.45749
314.30679
311.11794
307.91096
304.70582
301.52132
298.37744
295.29302
292.28742
289.37962
286.58812
283.93076
281.42441
279.08459
276.92512
274.95628
273.18535
271.61163
270.24349
335.15103
335.66994
336.69754
338.13551
340.01709
342.37528
345.23368
345.17813
345.39024
345.74575
346.15408
346.50381
346.71871
346.75295
346.57826
346.17712
345.53906
344.65833
343.53292
342.16451
340.55869
338.71419
336.64101
334.35943
331.89125
329.25797
326.47903
323.5776
320.57597
317.49629
314.35945
311.1855
307.99426
304.8054
301.63775
298.51088
295.44364
292.4552
289.56443
286.7898
284.14918
281.6596
279.33677
277.19478
275.24361
273.48976
271.93277
270.58184
335.21125
335.78098
336.83112
338.2864
340.18113
342.54993
345.41813
345.35426
345.55132
345.8925
346.29178
346.6491
346.88051
346.93116
346.76911
346.37506
345.7385
344.85479
343.72345
342.34759
340.73399
338.89319
336.82462
334.54663
332.08236
329.45531
326.68825
323.79999
320.81326
317.74992
314.63063
311.47538
308.30364
305.13446
301.98663
298.8789
295.82998
292.85864
289.98347
287.22288
284.59485
282.11667
279.80449
277.67291
275.73201
273.98809
272.44134
271.102
335.31061
335.95932
337.04395
338.52613
340.44165
342.82738
345.71061
345.65249
345.85608
346.20787
346.62007
347.00938
347.28297
347.3774
347.25495
346.89327
346.28076
345.4133
344.29188
342.92126
341.30974
339.46906
337.41377
335.14488
332.68736
330.06634
327.30614
324.4297
321.45556
318.40507
315.29852
312.15565
308.99537
305.83578
302.69548
299.59229
296.54478
293.57144
290.69092
287.92194
285.28302
282.79223
280.46669
278.32202
276.36933
274.61624
273.06356
271.7224
335.47542
336.24047
337.37102
338.88824
340.83056
343.23805
346.14035
346.26747
346.616
347.08386
347.5931
348.07059
348.42965
348.60104
348.54176
348.22752
347.64633
346.79529
345.6778
344.30138
342.67685
340.81795
338.74121
336.462
333.98828
331.34718
328.56459
325.66439
322.6697
319.59736
316.46672
313.29717
310.10711
306.91428
303.73696
300.59306
297.50131
294.48073
291.55075
288.73103
286.04125
283.50074
281.12791
278.93971
276.94924
275.16667
273.59267
272.23833
335.74393
336.61189
337.7993
339.35894
341.33386
343.7681
346.6942
350.13423
350.24732
350.50462
350.82688
351.13951
351.36385
351.42157
351.25755
350.84269
350.1615
349.20957
347.99035
346.51242
344.78771
342.83072
340.65822
338.28917
335.73765
333.01595
330.15112
327.16782
324.08912
320.93616
317.72492
314.47345
311.20045
307.9245
304.66345
301.43674
298.26316
295.16272
292.15571
289.26261
286.50401
283.90015
281.47043
279.23284
277.20234
275.39152
273.80016
272.43858
336.01564
336.98698
338.25007
339.86789
341.88889
344.36192
347.32272
350.79601
350.89554
351.13686
351.4437
351.74655
351.97102
352.03766
351.8848
351.476
350.79386
349.8324
348.5951
347.09188
345.33665
343.34581
341.13754
338.73176
336.14959
333.40341
330.51068
327.49774
324.3892
321.20703
317.97029
314.69401
311.39583
308.09396
304.80596
301.55109
298.34802
295.21689
292.17836
289.25348
286.46373
283.83046
281.37443
279.11511
277.06935
275.25199
273.66302
272.31254
336.23873
337.33758
338.70039
340.39839
342.48482
345.014
348.02536
351.54566
351.63295
351.85974
352.1518
352.44413
352.66595
352.73966
352.59965
352.19886
351.51846
350.55015
349.29666
347.76851
345.98136
343.9537
341.70561
339.25824
336.63341
333.85371
330.92856
327.87953
324.73317
321.51271
318.2377
314.92609
311.59197
308.25278
304.92561
301.62966
298.38337
295.20714
292.12214
289.15026
286.31416
283.63678
281.14069
278.8474
276.77679
274.94732
273.35888
272.02043
336.47365
337.71468
339.19351
340.98809
343.1563
345.75766
348.83503
352.41155
352.4776
352.68006
352.94687
353.21672
353.4244
353.49341
353.35431
352.95556
352.2704
351.29048
350.01707
348.46058
346.63763
344.56837
342.27455
339.77899
337.10447
334.27405
331.31055
328.21826
325.02403
321.75309
318.42598
315.06084
311.6746
308.28092
304.89596
301.53958
298.22988
294.98809
291.83645
288.79832
285.89831
283.16165
280.6135
278.2782
276.17972
274.34081
272.75996
271.44327
336.70312
338.09105
339.6958
341.60052
343.86711
346.55872
349.72032
353.23888
353.1824
353.28036
353.45738
353.65116
353.79802
353.82321
353.65206
353.23092
352.5235
351.52091
350.22186
348.6352
346.77722
344.66898
342.33377
339.79732
337.08318
334.21354
331.20979
328.08208
324.84448
321.52398
318.1417
314.71568
311.26443
307.80464
304.34948
300.92194
297.54035
294.22814
291.00958
287.91031
284.95741
282.17875
279.60243
277.25574
275.16524
273.35349
271.81625
270.55545
336.90717
338.43402
340.16565
342.18957
344.57073
347.37276
350.63952
350.5071
350.60091
350.82479
351.11111
351.40234
351.6384
351.74813
351.65629
351.30933
350.66665
349.71723
348.45866
346.89911
345.05711
342.95827
340.62751
338.08811
335.3657
332.48529
329.4712
326.33854
323.09984
319.77998
316.40068
312.98239
309.54445
306.10355
302.6745
299.27699
295.93102
292.65895
289.48491
286.43579
283.54012
280.82798
278.33003
276.0758
274.08843
272.38054
270.94933
269.79505
337.06615
338.71038
340.56
342.70733
345.21913
348.15411
351.55016
351.41082
351.49577
351.71175
351.99263
352.28128
352.51797
352.63265
352.55032
352.21641
351.58756
350.64703
349.39177
347.82975
345.97653
343.85214
341.48318
338.89523
336.11329
333.16359
330.07202
326.86283
323.56239
320.17856
316.7363
313.25544
309.75504
306.25315
302.76774
299.3172
295.92372
292.61158
289.41109
286.35169
283.46327
280.77548
278.31749
276.11724
274.19507
272.55835
271.20333
270.12605
337.16344
338.89212
340.84304
343.1153
345.77571
348.86957
352.42125
352.27931
352.35916
352.57119
352.85096
353.14101
353.38081
353.50067
353.4268
353.10424
352.4875
351.55593
350.30724
348.7455
346.88177
344.73242
342.31796
339.66563
336.80389
333.76314
330.57323
327.25971
323.85546
320.38432
316.86387
313.30901
309.74823
306.20056
302.69349
299.24999
295.88657
292.63704
289.51684
286.53859
283.71962
281.08706
278.67688
276.52543
274.65922
273.08292
271.79523
270.78788
337.18873
338.96174
340.99307
343.39278
346.22451
349.50708
353.24173
353.10274
353.18207
353.39473
353.67778
353.97282
354.21779
354.34323
354.27744
353.96219
353.3535
352.43465
351.1946
349.63093
347.75036
345.56793
343.10531
340.3892
337.44976
334.32073
331.03692
327.62921
324.14238
320.60805
317.05738
313.52715
310.04419
306.61671
303.24585
299.92497
296.68047
293.51154
290.43066
287.464
284.64564
282.01682
279.6247
277.5187
275.72263
274.21699
273.00253
272.06578
337.14112
338.91776
341.00933
343.54476
346.57835
350.0828
354.02608
353.89618
353.97985
354.19759
354.48758
354.79003
355.04133
355.17227
355.11098
354.80408
354.20779
353.30077
352.0676
350.50253
348.6098
346.40298
343.90389
341.14204
338.15431
334.98824
331.70498
328.38057
325.09832
321.89579
318.74822
315.60383
312.41647
309.17667
305.89055
302.57763
299.26694
296.03495
292.90937
289.92332
287.11215
284.51905
282.19502
280.19338
278.5132
277.0863
275.9332
275.04294
337.02741
338.77073
340.90701
343.59621
346.8709
350.63084
354.80301
354.68832
354.78095
355.00745
355.3065
355.61894
355.88012
356.01814
355.96706
355.67232
355.09395
354.20352
352.98539
351.43398
349.55761
347.38127
344.95294
342.35472
339.71284
337.17491
334.8599
333.15712
331.45349
329.13099
326.4605
323.6684
321.11772
318.74396
315.56342
312.22078
308.81384
305.37717
301.97437
298.65159
295.4629
292.46033
289.70315
287.25745
285.18949
283.54275
282.28943
281.36059
336.86526
338.54652
340.72055
343.59356
347.15537
351.20002
355.61245
355.51825
355.62314
355.85988
356.1722
356.49661
356.76867
356.91463
356.8763
356.60539
356.06346
355.22672
354.09368
352.69743
351.12023
349.49269
347.94506
346.578
345.52593
343.96882
341.86255
339.38548
336.62511
333.62517
330.43188
327.10314
323.6861
320.1899
316.64198
313.0471
309.44685
305.86232
302.32451
298.86522
295.72555
292.55773
289.55459
286.87398
284.63644
282.91542
281.64876
280.71465
336.67535
338.27626
340.4946
343.59755
347.49851
351.85167
356.50964
356.43982
356.55677
356.80685
357.12852
357.45453
357.72194
357.8735
357.86245
357.66245
357.2767
356.74771
356.13953
355.49077
354.8035
354.11064
353.40986
352.37597
350.76971
348.7544
346.30861
343.5298
340.50685
337.26444
333.83195
330.24632
326.53053
322.68783
318.74678
314.71754
310.63391
306.53841
302.48393
298.52717
294.73652
291.18552
287.96383
285.17754
282.94174
281.31508
280.15963
279.32261
336.48776
338.01778
340.32301
343.74023
348.05509
352.75783
357.69097
357.67681
357.79165
358.01791
358.29346
358.56144
358.77833
358.91767
358.96764
358.93248
358.81737
358.62068
358.33966
357.98256
357.55922
357.0279
356.08476
354.71664
352.91965
350.6863
348.10312
345.19792
342.02505
338.59871
334.93084
331.05012
326.99892
322.8186
318.56334
314.2769
309.98985
305.74261
301.57599
297.53524
293.67476
290.07288
286.82281
284.03599
281.8344
280.23855
279.12087
278.28953
336.42906
337.99374
340.5159
344.40367
349.32453
354.62395
360.17544
366.05056
365.76045
365.53805
365.35337
365.19387
365.04573
364.89672
364.73026
364.52991
364.27887
363.96476
363.5818
363.12912
362.55377
361.63227
360.32833
358.59084
356.39653
353.79982
350.82035
347.49595
343.90437
340.09769
336.11722
332.0028
327.78784
323.48454
319.12906
314.74709
310.36805
306.03382
301.78628
297.67158
293.748
290.08935
286.79577
283.99605
281.83854
280.32919
279.27679
278.44999
336.31439
337.84095
340.53187
344.85434
350.31827
356.11805
362.1668
368.54656
368.13801
367.83065
367.6019
367.42826
367.28605
367.15448
367.01291
366.84347
366.63006
366.36133
366.03865
365.62179
364.91611
363.84661
362.32556
360.32043
357.8867
355.07323
351.93571
348.51902
344.87896
341.04093
337.02321
332.86091
328.59227
324.22731
319.80861
315.35996
310.91158
306.5084
302.19253
298.0108
294.02313
290.30774
286.96944
284.18819
282.1282
280.70596
279.71596
278.88741
336.20124
337.67941
340.5518
345.3373
351.31619
357.49786
363.86166
370.45894
370.04792
369.73804
369.50697
369.33212
369.18954
369.0583
368.91791
368.74962
368.52813
368.28118
367.73121
366.35196
364.57504
362.52791
360.26515
357.80659
355.15867
352.32004
349.27044
346.02801
342.6132
339.04462
335.32111
331.46431
327.50938
323.46523
319.36633
315.24081
311.11351
307.03175
303.03548
299.17052
295.49589
292.091
289.06631
287.14381
286.12201
284.90839
283.9933
283.12763
336.14373
337.682
340.92658
346.4753
353.36366
360.33024
367.44075
374.818
381.16693
380.49725
379.91458
379.88803
379.96239
380.15266
380.51529
381.15799
382.19399
383.70552
385.70613
388.107
390.77709
393.55199
396.91858
399.433
401.62746
402.42469
401.94819
400.27081
397.71477
394.38232
390.29975
385.7773
380.95627
375.73423
370.6332
365.33636
360.26129
355.37195
350.74633
346.49661
342.72678
339.61879
337.48051
343.26358
352.18313
351.55478
350.27799
348.29858
335.90144
337.45437
341.01219
347.44631
355.41451
363.20329
370.92541
371.24422
372.42328
374.79288
383.33554
401.41911
433.34089
482.15054
547.00759
623.97365
708.01183
794.43348
879.50187
960.47442
1035.6614
1103.9359
1164.6111
1217.2529
1261.1744
1249.2645
1235.1306
1218.0633
1202.348
1183.604
1163.3213
1143.9879
1125.5681
1105.0005
1088.7824
1072.5911
1061.3643
1053.286
1048.7561
1048.6918
1053.8155
1066.0268
1089.18
1156.9073
1260.787
1310.1014
1340.9627
1350.1932
335.70364
337.22681
341.23567
350.30202
361.46826
368.45779
378.68963
405.79359
471.34058
594.09589
799.18765
1048.0882
1322.2205
1610.4285
1888.9847
2145.0711
2377.4823
2589.6266
2786.5354
2972.8917
3153.008
3329.6254
3503.9346
3675.4925
3838.4376
3895.129
3957.0595
4012.7427
4071.6769
4123.8102
4171.1756
4224.9024
4283.3494
4330.3677
4399.249
4466.1139
4561.6747
4674.3968
4802.0526
4948.5281
5118.8777
5328.8486
5613.5277
6080.73
6525.5967
6723.5391
6824.2064
6793.6958
335.5645
337.22833
344.11896
374.41414
423.6219
533.23779
740.97982
1105.2383
1593.9234
2159.4138
2685.0796
3134.7305
3501.0625
3797.2058
4046.2759
4276.819
4510.2585
4759.5805
5032.7508
5335.5565
5672.9879
6048.0273
6460.7049
6905.2639
7354.381
7866.3555
8346.4973
8807.4881
9285.4672
9775.498
10286.684
10841.042
11412.964
11937.542
12537.726
13151.651
13869.83
14591.44
15256.866
15894.403
16521.282
17183.386
17965.72
19094.161
20172.108
20689.717
20958.929
20852.734
335.51098
339.05782
368.92908
533.72282
899.99903
1544.8978
2440.4338
3434.7331
4280.2364
4898.9585
5330.0604
5634.0671
5867.5834
6067.4601
6276.731
6530.7559
6842.6746
7217.3674
7660.6736
8182.3191
8791.5227
9494.3861
10289.099
11154.839
11985.727
12835.917
13751.286
14753.683
15887.139
17143.223
18538.576
20161.51
21913.873
23365.992
25115.715
26938.973
29008.114
30951.826
32745.572
34457.528
36135.736
37872.014
39837.011
42492.619
45841.633
47649.596
48579.536
48907.846
335.75968
356.24598
528.80781
1271.7705
2644.1974
4369.828
5929.9853
6997.5066
7629.7161
7979.3737
8234.6871
8440.6797
8635.2678
8855.3366
9146.1708
9545.1087
10054.964
10668.233
11379.061
12207.48
13179.626
14309.448
15583.175
16933.944
18106.097
19407.354
20964.749
22769.169
24900.139
27351.112
30230.147
33868.84
38157.206
42755.453
47363.569
51630.419
55784.555
59761.795
63695.104
67596.121
71537.153
75673.706
80352.469
86272.553
92107.408
92845.599
92515.591
93648.411
339.71375
478.57086
1251.2731
3529.5178
6609.3006
9039.2149
10474.168
11193.053
11668.237
11953.761
12137.211
12318.55
12557.295
12880.389
13351.516
13986.393
14748.617
15620.191
16636.161
17869.52
19364.016
21137.556
23175.961
25428.955
27758.118
30394.332
33406.365
36844.495
40994.231
45797.068
51654.353
58599.51
66026.005
74410.111
82167.837
89361.934
96148.275
102808.05
109307.94
115676.89
121992.81
128466.67
135540.85
143865.65
149738.56
148279.42
146813.73
149739.14
374.82086
1079.3864
3513.0118
8407.0688
12822.689
15053.837
16324.697
16799.286
16942.083
17046.036
17173.386
17445.7
17905.704
18559.561
19405.231
20401.486
21554.367
22917.69
24601.984
26711.534
29269.795
32312.13
35853.998
39968.827
45007.191
50418.686
56076.217
62264.274
69372.219
77240.362
86390.175
96304.177
106091.92
116489.35
127314.19
137918.47
148455.15
158470.17
168087.06
177374.97
186444.67
195571.86
205279.05
215831.85
219641.43
219625.94
219426.95
222571.42
603.56799
3195.6376
8775.9653
16326.629
21158.941
23455.63
23837.21
23585.808
23216.319
23139.28
23424.981
24091.677
25158.595
26614.459
28255.677
30028.996
32169.531
34836.808
38026.824
41821.299
46241.806
51386.531
57227.27
63759.824
71078.366
79115.424
87836.542
97290.097
107537.96
118433.1
130444.9
143692
157556.68
172471.92
187752.95
202807.09
217946.72
232217.85
245883.55
258974.16
271602.66
284116.03
297126.12
310141.16
312225.62
315669.14
317298.13
317868.49
1705.7018
8913.4336
18573.464
27761.351
33243.198
33696.257
32395.518
31335.869
30887.744
31152.865
32089.508
33688.218
35954.993
38791.072
41944.28
45322.266
49066.963
53350.141
58290.034
64080.999
70796.826
78602.937
87437.372
97251.322
108054.51
119912.51
132858.27
146858.16
161928.11
177649.99
194548.4
212850.58
232040.76
252117.67
272615.61
293136.31
313959.12
333736.54
352766.46
370994.64
388500.69
405696.76
423270.2
439209.94
444907.48
450954.97
453534.12
448079.16
5738.3634
21310.372
35273.547
44864.553
47665.519
45029.898
42634.787
41480.117
41515.315
42640.169
44698.115
47572.458
51169.484
55387.187
60270.336
65830.473
72101.765
79180.305
87197.503
96555.103
107213.11
119434.88
133040.97
148027.16
164454.87
182412.7
201949.58
223077.57
245869.78
269536.8
294466.14
320396.69
347366.33
374614.73
402573.4
430274.17
458136.21
484726.11
510253.43
534664.49
558080.63
581055.57
604513.11
625500.49
642904.04
655533.01
659519
641770.95
17153.873
44185.248
63102.34
68226.427
64574.507
59665.445
56941.853
56333.689
57306.812
59555.19
62881.841
67147.005
72307.618
78317.592
85348.774
93528.363
102964.75
113719.56
125904.94
140139.76
156147.46
174464.17
194670.51
216902.95
241370.5
268221.39
297535.64
329409.18
363940.38
399514.27
438741.85
479761.81
521254.06
562306.33
602804.08
641721.53
679171.69
714578.75
747550.76
778288.02
807063.22
834478.51
862042.76
889646.06
911608.84
920469.11
914612.93
879211.8
42663.209
88138.501
101513.29
96748.131
88119.782
81816.909
79579.909
79953.393
82062.242
85464.618
90389.708
96516.827
103838.83
112381.48
122347.63
133970.64
147466.86
162927.21
180438.92
200756.76
223398.36
249233.51
277798.94
309345.51
344171.11
382444.11
424332.39
469979.86
519421.93
569798.3
627026.29
686067.43
744975.08
803279
860144.33
914633.29
966613.32
1014770.3
1058707.3
1098499.7
1134222.2
1166162.3
1196092.8
1222670.8
1236394
1233358.6
1211899.6
1152771.5
101314.83
154372.15
151788.07
138279.33
126490.1
119489.35
118821.21
120981
124973.57
130125.03
137214.44
145792.9
156074.57
168390.96
182490.45
198989.99
218366.9
240526.48
265568.83
293708.72
325152.7
360784.61
400818.98
445293.96
494424.93
548281.67
607147.2
671062.16
739969.88
810042.56
890355.98
970967.09
1050372.6
1128275.3
1203678.7
1275871.5
1344357.3
1407397.9
1464531.4
1515682.1
1560543
1598656.6
1631097.9
1653257.4
1657916.9
1639595.9
1604893.1
1516370.7
213683.27
255342.68
232517.6
209630.09
195694.8
190546.92
193074.44
197798.14
204475
211776.97
222634.09
235469.53
251088.14
270562.43
292282.71
317017.64
345416.81
377937.48
414780.44
453957.01
498879.76
548281.8
606321.74
671050.06
742299.15
820079.33
904022.86
994799.09
1090770.3
1190391.1
1303189.4
1413877.2
1522234.9
1628210.1
1730312.5
1827300.9
1918371.9
2001605.2
2076344.1
2142036.3
2197804.5
2242346.7
2275597.9
2292680.2
2285071.3
2246445.2
2186207.2
2068755.3
424138.28
436285.93
394072.43
362307.11
345952.69
343114.81
347118.44
354464.51
364678.03
379124.91
396959.41
417270.35
443113.32
477044.5
513419.76
554385.18
601189.91
655200.91
716756.76
776504.79
848338.46
922363.57
1009628.5
1106517.9
1212037
1326222.9
1449556.4
1580793.9
1721561
1873366.5
2039117.8
2200166.9
2356690
2509512.5
2655202.7
2791031
2916285.2
3030747
3133095
3220948.7
3292613.7
3345726.5
3378587.3
3385073.5
3350410.3
3270745.3
3179338.6
3021128.7
907511.34
897765.32
838685.51
794739.93
769186.68
760904.26
760972.37
768418.71
783317.47
806233.66
836489.09
874405.62
920831.93
976780.98
1041103.3
1114007.8
1198451.5
1299389.9
1417380.5
1541905
1676224.3
1800073.7
1958361.3
2134350.7
2324375.4
2526335.3
2739917.5
2963235.5
3192069.4
3440233.1
3664992
3891239.1
4106492.7
4312151.3
4504523.8
4682207
4844776.2
5003029.1
5150019.1
5274389.7
5372585.8
5443968.8
5475049.2
5461377
5378043.5
5232394.6
5100745
4908026.1
2994816.4
2998322.1
2876167.5
2760634.4
2671030.3
2615250.5
2585773.1
2579909
2595641.5
2631685.1
2686693.9
2760312.4
2852681.9
2963734.7
3095004.8
3247508.9
3423086.2
3623984.5
3852497.2
4112366
4398602.1
4683272.3
5020687.3
5407063.7
5826091.6
6273400.7
6743050.7
7227612.6
7711030.6
8289455.2
8648809.6
9069950.5
9455507.7
9814632
10143404
10442879
10714695
10942456
11132865
11284770
11393913
11490395
11465115
11394247
11219831
10919881
10677597
10370812
20663462
19950002
19193929
18432491
17811028
17392720
17151224
17064741
17116191
17292479
17584058
17983887
18488124
19091693
19793840
20590928
21481036
22459973
23521841
24659006
25859141
27108772
28390382
29683639
30966963
32214857
33406923
34519354
35517064
36406908
37200386
37859290
38404763
38843164
39191166
39448097
39643365
39769398
39836251
39849162
39798937
39657827
39437395
39052976
38486453
37453165
36649948
36136290
467204.02
466359.65
465623.85
464917.78
464229.88
463556.45
462893.88
462239.67
461591.5
460947.18
460288.04
459569.31
458775.88
463097.6
545946.98
595816.72
585495.57
575741.33
566791.66
558805.95
551859.67
545953.8
541050.64
537086.8
534026.29
531931.63
531066.47
532650.71
537659.07
561060.58
81840.559
76941.574
75770.267
75216.861
74806.665
74445.425
74117.748
73819.024
73541.501
73292.881
73114.605
72913.512
72856.804
74133.013
86258.347
96754.33
94470.302
92659.45
91113.649
87570.498
85274.508
84911.541
85469.735
91734.254
105663.99
110352.98
112870.16
116602.86
116010.03
119318.59
29149.781
26944.757
25683.659
25020.819
24671.052
24352.979
24107.46
23923.13
23793.673
23793.856
24475.326
24627.334
25125.627
26591.737
29658.904
30312.481
28965.54
28501.51
28337.17
27653.407
28087.119
29085.938
30569.779
33071.519
36107.363
37329.149
35040.778
35222.087
30301.585
28387.442
14454.354
14576.486
13761.284
13096.839
12652.875
12335.042
12116.164
11980.791
11914.406
11936.747
12225.259
12467.885
12949.951
14088.788
15504.383
14255.949
12818.605
12654.021
12920.268
13202.312
13874.776
14676.671
15425.482
16094.111
16405.399
15891.803
14351.714
12835.233
9953.2597
9516.5701
8403.9334
9336.112
9091.7003
8664.0509
8312.6108
8039.7748
7846.4168
7724.4259
7661.42
7656.5758
7762.339
7877.411
8102.4625
9504.0819
10488.751
9222.2803
7629.8739
7406.8271
7617.5084
7905.8097
8279.337
8616.9921
8790.3311
8682.5246
8267.1755
7558.0056
6719.2152
5835.8394
4339.4173
3731.1884
5250.5759
6335.1696
6503.0264
6356.375
6153.319
5962.0187
5808.5401
5696.3725
5620.831
5578.1582
5576.1625
5552.5209
5654.8086
7094.2274
8380.5927
7199.9526
5739.2498
5243.5816
5208.3437
5288.1443
5381.4963
5393.7223
5252.9644
4962.5347
4677.5475
4227.2874
3736.5366
3305.1147
2518.9045
2206.1531
3403.1613
4317.7106
4708.6989
4826.8808
4794.9541
4709.2863
4613.3321
4521.7966
4439.1428
4363.9713
4281.3327
4135.3329
4312.6463
5129.1589
6636.8279
6050.2171
4904.9229
4201.3531
3943.3803
3829.6326
3723.2071
3574.2822
3367.1802
3172.2088
2947.6894
2690.6315
2434.1494
2223.5925
1794.6997
1608.2001
2251.1876
2877.012
3311.0201
3609.8833
3730.9897
3754.5275
3726.2991
3667.5972
3588.7997
3493.4262
3352.096
3118.6962
3204.5493
3580.8699
5053.6274
5129.1947
4352.0523
3594.8278
3196.8885
2949.7925
2750.5617
2561.781
2399.9806
2256.185
2099.4607
1949.6632
1807.2602
1697.0143
1423.9611
1292.6199
1523.3604
1941.2263
2265.6045
2543.3248
2771.3169
2881.3872
2911.6496
2889.6242
2824.3124
2724.089
2559.3764
2270.0833
2164.764
2348.6453
3689.2546
4257.3185
3705.3502
3089.1576
2668.8449
2381.3649
2162.5354
1982.9417
1869.0178
1751.8108
1641.6456
1543.7833
1453.115
1380.4207
1188.4013
1085.7357
1047.4383
1324.7058
1554.6156
1745.9359
1894.3201
1998.8567
2056.5489
2064.2267
2016.3404
1928.7101
1800.7493
1604.4619
1465.2966
1554.3009
2583.5936
3403.7952
3014.5368
2569.2304
2224.2802
1968.7628
1772.5859
1630.2312
1532.756
1439.1898
1358.2722
1288.2628
1221.7541
1162.9484
1017.2322
930.77092
734.30296
911.90258
1061.6058
1181.1636
1274.796
1341.6062
1385.461
1397.0388
1376.6977
1331.4248
1255.6279
1127.2632
987.73737
1023.6526
1793.0051
2581.1396
2369.1677
2091.5857
1844.5464
1643.6797
1483.9544
1382.7507
1295.3504
1219.3048
1155.6881
1101.0785
1046.2522
993.46731
874.72671
803.49598
542.61599
642.78684
725.93422
790.19669
840.99731
875.71506
897.43684
904.74383
912.7395
904.14076
868.58424
782.33063
649.27707
657.03335
1216.9567
1875.1187
1801.6393
1660.4161
1513.0963
1374.6434
1255.4022
1181.5416
1109.7678
1047.9513
995.29728
949.75151
901.76809
836.157
754.3419
699.94801
433.40443
480.97335
518.95305
543.684
559.13345
569.70773
575.82567
576.11117
581.42696
576.51886
551.91968
499.5707
428.03954
429.45918
821.04895
1327.0049
1340.8305
1280.733
1207.8921
1129.0106
1055.0402
1002.5856
948.57939
900.56244
857.51423
819.79603
779.84891
726.2631
663.79664
618.93305
375.31344
393.21208
406.04247
412.65298
414.46076
414.60343
412.13198
407.11785
400.31989
390.43903
375.22343
350.73015
325.31264
331.45844
574.61316
931.2642
983.7731
966.55921
939.97617
900.84472
870.81706
835.74107
798.75186
764.2395
731.31677
702.63384
672.18085
629.38402
582.8354
547.56864
348.88609
354.09854
357.07108
357.35258
356.44176
354.43451
350.98562
345.79399
338.69863
329.62892
317.7995
301.79512
292.93722
299.29635
435.23001
661.4152
717.07218
720.47381
719.17316
712.93083
699.90835
681.04732
660.01989
638.74069
616.98292
598.2539
577.03268
544.46547
511.5444
485.57205
339.02304
340.26134
340.63779
340.21122
339.17063
337.19232
333.88885
328.92622
322.1356
313.59346
302.59082
288.87125
283.32328
288.19044
362.46347
492.18301
534.01883
541.72779
548.90245
553.04165
552.30795
548.51674
541.08651
531.61647
520.65631
510.94923
498.1705
474.47439
451.91546
433.67183
336.09783
336.41012
336.33832
335.97094
335.05485
333.22907
330.09181
325.3054
318.70968
310.40422
299.62742
286.49019
280.69018
283.47158
322.74781
394.482
421.58386
429.68832
434.54691
440.76926
446.77264
451.23527
451.89092
450.53988
447.26336
444.20701
435.93522
418.95346
403.93074
391.76601
335.39315
335.53079
335.44687
335.1026
334.22792
332.45831
329.39313
324.69772
318.21653
310.0535
299.44367
286.46745
279.52805
281.07401
301.08973
339.07306
354.47525
360.77347
365.9723
372.93296
382.17139
388.76735
392.4053
394.72407
395.60398
396.21868
384.19555
374.73167
366.36453
359.30284
335.23065
335.32492
335.23866
334.89654
334.02886
332.27269
329.23125
324.57497
318.15309
310.07219
299.56543
286.56967
278.0072
278.98696
289.08337
308.40867
315.81041
319.69752
324.23939
330.27255
339.3306
346.30557
351.5035
355.74185
358.78022
361.13442
353.12454
346.80249
341.44201
336.91711
335.16771
335.23434
335.14289
334.79606
333.92388
332.16336
329.12023
324.4696
318.06612
310.01951
299.40985
286.13011
275.80413
276.11161
281.60714
290.66446
292.90735
294.14507
296.83165
301.35783
308.85889
315.94058
322.18032
327.33546
331.32457
334.37882
329.40522
325.33791
321.98111
319.14996
335.12216
335.16658
335.07034
334.71716
333.83587
332.06218
329.00287
324.33668
317.92324
309.87001
298.35188
284.31337
272.2898
271.16792
274.76398
278.23402
277.49257
276.73343
277.93902
281.52687
288.28993
295.06665
301.44854
306.85273
311.26462
314.79366
311.84392
309.39316
307.31192
305.50605
335.08477
335.11038
335.00934
334.6492
333.757
331.96628
328.88373
324.19052
317.75006
309.66099
297.41241
282.60215
269.36067
266.48821
268.81056
269.55066