/*--------------------------------*- C++ -*----------------------------------*\
| =========                 |                                                 |
| \\      /  F ield         | OpenFOAM: The Open Source CFD Toolbox           |
|  \\    /   O peration     | Version:  2212                                  |
|   \\  /    A nd           | Website:  www.openfoam.com                      |
|    \\/     M anipulation  |                                                 |
\*---------------------------------------------------------------------------*/
FoamFile
{
    version     2.0;
    format      ascii;
    arch        "LSB;label=32;scalar=64";
    class       volScalarField;
    location    "0.05";
    object      p;
}
// * * * * * * * * * * * * * * * * * * * * * * * * * * * * * * * * * * * * * //

dimensions      [1 -1 -2 0 0 0 0];

internalField   nonuniform List<scalar> 
18080
(
187957.81
187953.89
187944.3
187929.75
187909.36
187881.87
187845.95
187800.1
187742.42
187670.6
187581.78
187472.52
187338.59
187174.88
186975.18
186732
186436.37
186077.62
185643.2
185118.53
184486.91
183729.59
182825.94
181753.87
180490.46
179012.9
177299.72
175332.14
173095.77
170582.05
167789.51
164725.19
161405.26
157854.79
154107.46
150204.53
146192.8
142123.34
138048.94
134022.14
130093.43
126309.59
122712.38
119337.6
116214.32
113362.57
110794.52
108512.37
187957.85
187953.9
187944.31
187929.76
187909.36
187881.86
187845.94
187800.07
187742.38
187670.54
187581.7
187472.42
187338.48
187174.76
186975.07
186731.92
186436.34
186077.68
185643.4
185118.93
184487.62
183730.7
182827.57
181756.14
180493.48
179016.8
177304.6
175338.05
173102.72
170589.99
167798.33
164734.68
161415.17
157864.84
154117.31
150213.86
146201.32
142130.8
138055.15
134027.02
130096.97
126311.84
122713.48
119337.72
116213.69
113361.41
110793.08
108510.81
187957.9
187953.93
187944.33
187929.78
187909.38
187881.88
187845.95
187800.08
187742.38
187670.52
187581.68
187472.39
187338.45
187174.74
186975.06
186731.93
186436.41
186077.84
185643.69
185119.41
184488.33
183731.73
182829.01
181758.07
180496
179019.98
177308.5
175342.72
173108.15
170596.13
167805.07
164741.85
161422.55
157872.15
154124.25
150220.12
146206.61
142134.86
138057.81
134028.16
130096.57
126309.99
122710.34
119333.53
116208.76
113356.09
110787.73
108505.6
187957.98
187953.98
187944.38
187929.83
187909.43
187881.93
187846
187800.12
187742.41
187670.54
187581.69
187472.39
187338.44
187174.74
186975.08
186732.02
186436.58
186078.15
185644.21
185120.22
184489.53
183733.43
182831.33
181761.15
180499.98
179025
177314.64
175350.02
173116.58
170605.59
167815.37
164752.72
161433.62
157883.02
154134.46
150229.21
146214.16
142140.52
138061.3
134029.34
130095.41
126306.6
122704.96
119326.53
116200.57
113347.25
110778.78
108496.86
187958.11
187954.07
187944.48
187929.93
187909.54
187882.04
187846.11
187800.23
187742.51
187670.65
187581.79
187472.5
187338.57
187174.89
186975.29
186732.3
186436.99
186078.74
185645.05
185121.4
184491.15
183735.62
182834.22
181764.87
180504.67
179030.76
177321.55
175358.09
173125.77
170615.74
167826.24
164763.97
161444.81
157893.63
154143.93
150236.99
146219.72
142143.41
138061.2
134026.05
130088.94
126297.1
122692.78
119312.17
116184.7
113330.63
110762.21
108480.87
187958.32
187954.25
187944.65
187930.12
187909.73
187882.24
187846.33
187800.45
187742.75
187670.89
187582.04
187472.76
187338.86
187175.24
186975.72
186732.86
186437.73
186079.73
185646.39
185123.19
184493.54
183738.74
182838.24
181769.97
180510.99
179038.42
177330.64
175368.6
173137.6
170628.67
167839.92
164777.92
161458.43
157906.24
154154.79
150245.36
146224.93
142144.86
138058.47
134018.92
130077.39
126281.37
122673.36
119289.76
116160.24
113305.2
110736.99
108456.71
187958.65
187954.55
187944.95
187930.44
187910.08
187882.61
187846.72
187800.87
187743.19
187671.35
187582.54
187473.31
187339.48
187175.95
186976.56
186733.89
186439.02
186081.36
185648.48
185125.87
184496.96
183743.07
182843.66
181776.65
180519.09
179048.06
177341.86
175381.36
173151.71
170643.82
167855.64
164793.57
161473.24
157919.33
154165.22
150252.2
146227.29
142142.01
138049.86
134004.28
130056.73
126255.04
122642.03
119254.43
116122.2
113266
110698.29
108419.83
187959.17
187955.04
187945.45
187930.97
187910.65
187883.23
187847.38
187801.59
187743.96
187672.18
187583.44
187474.3
187340.58
187177.2
186978.02
186735.62
186441.11
186083.94
185651.66
185129.83
184501.87
183749.14
182851.08
181785.62
180529.77
179060.56
177356.18
175397.4
173169.19
170662.28
167874.44
164811.87
161490.01
157933.44
154175.45
150257.34
146226.24
142133.83
138033.89
133980.16
130024.53
126215.24
122595.56
119202.69
116067
113209.45
110642.72
108367.17
187959.98
187955.82
187946.26
187931.83
187911.58
187884.24
187848.48
187802.77
187745.24
187673.57
187584.96
187475.96
187342.43
187179.29
186980.42
186738.42
186444.43
186087.91
185656.46
185135.63
184508.89
183757.6
182861.21
181797.61
180543.78
179076.65
177374.31
175417.35
173190.54
170684.39
167896.45
164832.66
161508.26
157947.7
154184.18
150259.01
146219.46
142117.42
138007.03
133942.46
129976.1
126156.79
122528.39
119128.69
115988.63
113129.62
110564.57
108293.5
187961.21
187957.05
187947.53
187933.18
187913.04
187885.83
187850.21
187804.65
187747.28
187675.79
187587.38
187478.63
187345.39
187182.62
186984.2
186742.78
186449.51
186093.87
185663.51
185144
184518.82
183769.34
182875
181813.65
180562.2
179097.47
177397.37
175442.31
173216.81
170711.08
167922.39
164856.4
161528.12
157961.8
154190.58
150255.81
146204.92
142090.11
137965.94
133887.17
129906.85
126074.54
122434.93
119026.58
115881.19
113020.75
110458.51
108194.08
187963.05
187958.91
187949.46
187935.25
187915.28
187888.27
187852.87
187807.54
187750.43
187679.22
187591.12
187482.74
187349.94
187187.7
186989.95
186749.33
186457.04
186102.61
185673.68
185155.87
184532.68
183785.46
182893.63
181834.97
180586.3
179124.28
177426.62
175473.46
173249
170743.13
167952.77
164883.24
161549.25
157974.89
154193.21
150245.61
146179.77
142048.28
137906.27
133809.2
129810.99
125962.17
122308.43
118889.39
115737.7
112876.12
110318.33
108063.49
187965.75
187961.65
187952.33
187938.31
187918.6
187891.89
187856.81
187811.84
187755.11
187684.32
187596.69
187488.84
187356.68
187195.21
186998.37
186758.85
186467.9
186115.06
185688
185172.38
184551.69
183807.27
182918.49
181863.04
180617.59
179158.62
177463.55
175512.2
173288.38
170781.58
167988.29
164913.47
161571.47
157986.19
154190.61
150226.25
146141.09
141988.21
137823.49
133703.3
129682.62
125813.21
122142.08
118710.16
115551.34
112689.35
110138.37
107897.09
187969.57
187965.56
187956.43
187942.69
187923.36
187897.08
187862.48
187818.02
187761.82
187691.63
187604.66
187497.58
187366.3
187205.87
187010.28
186772.25
186483.05
186132.28
185707.64
185194.79
184577.21
183836.23
182951.12
181899.46
180657.72
179202.11
177509.72
175559.98
173336.2
170827.4
168029.6
164947.26
161594.4
157994.72
154181.11
150195.3
146085.65
141905.92
137712.86
133564
129515.66
125621.14
121929.08
118482.09
115315.6
112454.56
109913.74
107691.21
187974.81
187970.92
187962.08
187948.74
187929.93
187904.25
187870.31
187826.55
187771.11
187701.72
187615.66
187509.6
187379.51
187220.47
187026.51
186790.42
186503.49
186155.36
185733.76
185224.35
184610.6
183873.77
182993.04
181945.81
180708.29
179256.37
177566.72
175618.25
173393.73
170881.62
168077.35
164984.86
161617.78
157999.6
154163.21
150150.57
146010.57
141797.78
137570.1
133386.44
129304.78
125380.28
121663.65
118199.56
115025.37
112167.52
109641.39
107444.24
187981.69
187977.99
187969.54
187956.75
187938.65
187913.78
187880.71
187837.88
187783.42
187715.09
187630.2
187525.47
187396.91
187239.65
187047.78
186814.12
186530.03
186185.18
185767.31
185262.09
184652.95
183921.07
183045.47
182003.32
180770.55
179322.63
177635.71
175688.1
173461.9
170944.91
168131.92
165026.27
161641.17
157999.93
154135.48
150090.07
145913.31
141660.78
137391.73
133166.73
129045.77
125086.32
121341.57
117858.74
114677.55
111826.2
109320.73
107157.2
187990.31
187986.85
187978.92
187966.88
187949.69
187925.87
187893.93
187852.27
187799.04
187732.03
187648.6
187545.51
187418.84
187263.77
187074.46
186843.78
186563.13
186222.22
185808.82
185308.58
184704.87
183978.77
183109.14
182072.81
180845.33
179401.69
177717.45
175770.24
173541.38
171017.89
168193.81
165071.78
161664.6
157995.43
154097.3
150012.91
145792.69
141493.45
137176.03
132903.02
128736.75
124737.44
120961.3
117458.65
114272.04
111431.82
108954.5
106834.45
188000.56
187997.41
187990.16
187979.05
187963.04
187940.53
187909.96
187869.71
187817.95
187752.51
187670.8
187569.66
187445.22
187292.75
187106.45
186879.26
186602.65
186266.34
185858.13
185363.64
184766.16
184046.6
183183.56
182153.72
180932.17
179493.19
177811.61
175864.24
173631.51
171099.76
168262.27
165120.78
161687.57
157985.75
154048.46
149918.95
145648.7
141295.91
136923.3
132595.76
128378.41
124334.67
120524.33
117001.49
113812.12
110989.02
108548.92
106483.63
188012.08
188009.31
188002.9
187992.96
187978.39
187957.45
187928.49
187889.86
187839.77
187776.1
187696.33
187597.39
187475.48
187325.94
187143.05
186919.81
186647.75
186316.63
185914.25
185426.16
184835.64
184123.53
183268.15
182245.23
181029.87
179595.77
177916.98
175969.39
173732.6
171190.98
168337.59
165173.37
161710.24
157971.3
153989.75
149809.53
145483.26
141070.68
136636.63
132248.62
127974.95
123882.74
120036.02
116493.37
113304.91
110506.28
108113.88
106115.55
188024.28
188021.97
188016.57
188008.03
187995.18
187976.05
187948.9
187912.04
187863.73
187801.95
187724.28
187627.71
187508.53
187362.17
187182.98
186964.04
186696.93
186371.43
185975.37
185494.37
184911.28
184206.75
183358.96
182343.94
181135.28
179706.15
178029.86
176081.33
173839.24
171288.19
168418.34
165229.72
161733.57
157953.59
153923.28
149687.49
145300.06
140822.41
136321.65
131868.18
127533.79
123389.79
119505.12
115943.77
112760.84
109995.19
107662.02
105743.12
188036.46
188034.69
188030.47
188023.57
188012.68
187995.6
187970.37
187935.34
187888.84
187828.99
187753.45
187659.32
187542.97
187399.92
187224.6
187010.15
186748.2
186428.65
186039.18
185565.23
184990.01
184293.79
183454.35
182447.14
181245.53
179821.79
178148.23
176198.7
173950.74
171387.96
168499.87
165285.8
161756.46
157933.73
153851.92
149557.15
145104.67
140557.95
135986.46
131463.75
127065.31
122867.04
118943.52
115365.14
112193.06
109469.79
107207.97
105380.14
188047.92
188046.74
188043.86
188038.82
188030.16
188015.27
187992.01
187958.75
187914.01
187856.03
187782.58
187690.85
187577.32
187437.57
187266.11
187056.2
186799.5
186485.77
186102.93
185636.44
185069.17
184381.37
183550.51
182551.6
181357.38
179939.31
178268.74
176318.38
174064.62
171490.28
168583.52
165342.26
161777.33
157911.26
153777.56
149422.81
144903.43
140285.47
135640.86
131046.56
126581.93
122327.76
118365.01
114771.61
111616.08
108945.14
106766.7
105039.5
188058.12
188057.57
188056.14
188053.15
188046.95
188034.37
188012.99
187981.37
187938.24
187881.99
187810.5
187721.05
187610.2
187473.64
187305.97
187100.38
186848.67
186540.8
186164.53
185705.32
185145.99
184466.57
183644.28
182653.64
181466.88
180054.66
178387.35
176436.49
174177.25
171591.88
168667.02
165398.98
161798.48
157888.38
153702.27
149287.85
144701.99
140012.87
135294.84
130628.4
126096.81
121786.02
117784.09
114177.75
111044.49
108435.94
106352.16
104731.78
188066.74
188066.83
188066.91
188066.11
188062.59
188052.32
188032.67
188002.46
187960.73
187906.04
187836.32
187748.96
187640.62
187507
187342.77
187141.33
186894.43
186592.06
186222.05
185769.81
185218.07
184546.71
183732.69
182750.16
181570.8
180164.5
178500.71
176549.77
174285.6
171690.2
168748.45
165454.84
161820.23
157867.85
153630.03
149156.95
144506.96
139747.41
134957.62
130220.33
125622.53
121255.37
117214.63
113597.24
110491.56
107955.26
105975.88
104463.82
188073.68
188074.39
188075.94
188077.42
188076.79
188068.75
188050.56
188021.52
187980.98
187927.62
187859.46
187773.96
187667.83
187536.9
187375.88
187178.2
186935.71
186638.42
186274.19
185828.41
185283.73
184619.92
183813.7
182838.87
181666.62
180266.14
178606.02
176655.44
174386.93
171782.79
168825.82
165508.44
161842.03
157850.34
153563.48
149034.93
144322.18
139495.94
134637.44
129831.62
125169.62
120747.44
116668.72
113041.78
109968.25
107513.57
105645.77
104237.63
188079.08
188080.33
188083.22
188087
188089.45
188083.45
188066.43
188038.29
187998.74
187946.5
187879.66
187795.77
187691.62
187563.06
187404.89
187210.58
186972.04
186679.31
186320.28
185880.34
185342.06
184685.13
183886.06
182918.35
181752.77
180357.87
178701.46
176751.63
174479.41
171867.94
168897.66
165558.72
161863.38
157836.16
153503.68
148924.26
144153.09
139263.63
134340.28
129470.62
124746.4
120271.22
116155.79
112520.44
109482.68
107118.26
105365.19
104053.42
188083.14
188084.82
188088.87
188094.9
188100.56
188096.35
188080.18
188052.74
188013.97
187962.64
187896.93
187814.42
187711.98
187585.48
187429.79
187238.41
187003.32
186714.59
186360.14
185925.36
185392.78
184741.97
183949.33
182988.06
181828.58
180438.87
178786.1
176837.32
174561.95
171944.53
168962.9
165604.78
161883.68
157825.17
153450.92
148826.03
144001.25
139053.7
134070.65
129140.68
124359.75
119833.1
115682.26
112039.18
109039.7
106773.3
105136.46
103905.19
188086.14
188088.13
188093.11
188101.29
188110.2
188107.47
188091.86
188064.95
188026.8
187976.21
187911.43
187830.1
187729.11
187604.36
187450.8
187261.93
187029.8
186744.53
186394.04
185963.73
185436.1
184790.65
184003.65
183048.09
181894.08
180509.11
178859.78
176912.26
174634.24
172012.16
169021.05
165646.16
161902.56
157817.07
153405.1
148740.51
143867.28
138867.4
133830.51
128845.62
124011.29
119438.14
115252.43
111601.72
108641.78
106479.56
104955.31
103786.79
188088.34
188090.51
188096.18
188106.37
188118.47
188116.9
188101.63
188075.12
188037.44
187987.46
187923.45
187843.1
187743.32
187620.05
187468.27
187281.53
187051.92
186769.57
186422.45
185995.97
185472.58
184831.75
184049.63
183099.04
181949.85
180569.08
178922.95
176976.8
174696.53
172070.89
169071.99
165682.64
161919.65
157811.33
153365.65
148667.16
143750.61
138704.37
133619.69
128585.44
123702.74
119085.81
114867.86
111209.02
108288.76
106236.11
104815.75
103691.25
188089.94
188092.2
188098.33
188110.36
188125.51
188124.77
188109.71
188083.49
188046.18
187996.68
187933.31
187853.76
187754.99
187632.94
187482.66
187297.69
187070.17
186790.28
186445.99
186022.75
185502.94
184866.03
184088.08
183141.75
181996.73
180619.67
178976.43
177031.7
174749.57
172121.29
169116.07
165714.4
161934.9
157807.55
153332.07
148605.15
143650.27
138563.59
133437.05
128359.01
123433.09
118776.38
114528.94
110860.54
107979
106039.06
104710.91
103612.92
188091.12
188093.39
188099.79
188113.47
188131.44
188131.24
188116.32
188090.3
188053.29
188004.17
187941.31
187862.42
187764.48
187643.44
187494.39
187310.9
187085.13
186807.27
186465.35
186044.8
185528
184894.39
184119.96
183177.25
182035.8
180661.92
179021.21
177077.86
174794.16
172163.95
169153.66
165741.6
161948.18
157805.16
153303.56
148553.16
143564.65
138443.15
133280.35
128163.9
123199.82
118507.47
114232.11
110554.34
107709.61
105883.22
104633.41
103547.36
188091.98
188094.23
188100.75
188115.88
188136.38
188136.52
188121.68
188095.81
188059.01
188010.21
187947.77
187869.43
187772.17
187651.94
187503.9
187321.61
187097.27
186821.1
186481.13
186062.81
185548.5
184917.64
184146.15
183206.48
182068.05
180696.98
179058.5
177116.45
174831.45
172199.85
169185.5
165764.72
161959.66
157803.86
153279.6
148510.02
143492.23
138341.1
133147.16
127997.36
123000.03
118276.17
113975.52
110287.97
107477.46
105763.05
104576.72
103491.49
188092.62
188094.82
188101.37
188117.75
188140.45
188140.79
188125.99
188100.25
188063.62
188015.05
187952.94
187875.02
187778.31
187658.75
187511.52
187330.2
187107.02
186832.21
186493.83
186077.35
185565.09
184936.49
184167.44
183230.31
182094.42
180725.71
179089.18
177148.35
174862.28
172229.72
169212.15
165784.14
161969.38
157803.2
153259.43
148474.32
143431.22
138255.06
133034.56
127856.01
122829.9
118078.41
113754.98
110057.42
107278.41
105672.15
104535.04
103442.9
188093.1
188095.23
188101.76
188119.2
188143.77
188144.22
188129.46
188103.77
188067.26
188018.9
187957.06
187879.48
187783.21
187664.18
187517.63
187337.1
187114.87
186841.17
186504.09
186089.11
185578.53
184951.8
184184.76
183249.72
182115.93
180749.06
179114.13
177174.36
174887.39
172254.15
169234
165799.97
161977.2
157802.62
153242.15
148444.5
143379.66
138182.55
132939.55
127736.47
122685.76
117910.39
113566.87
109859.44
107109.08
105604.88
104504.25
103400.27
188093.47
188095.52
188101.99
188120.32
188146.47
188146.95
188132.2
188106.6
188070.19
188022
187960.38
187883.09
187787.18
187668.58
187522.57
187342.68
187121.23
186848.45
186512.44
186098.69
185589.49
184964.29
184198.9
183265.59
182133.54
180768.23
179134.66
177195.82
174908.12
172274.41
169252.23
165813.27
161983.89
157802.62
153228.03
148420.34
143336.96
138122.41
132860.47
127636.59
122564.98
117769.11
113407.98
109690.99
106966.24
105556.2
104481.55
103363.32
188093.74
188095.73
188102.14
188121.2
188148.64
188149.16
188134.44
188108.91
188072.59
188024.5
187963.04
187885.97
187790.35
187672.11
187526.55
187347.2
187126.39
186854.38
186519.25
186106.52
185598.47
184974.55
184210.57
183278.75
182148.22
180784.32
179151.99
177214.04
174925.84
172291.9
169268.21
165825.32
161990.64
157804.02
153217.66
148402.03
143303.2
138074.37
132796.67
127555.38
122466.26
117653.02
113276.75
109551.12
106849.36
105523.32
104466.32
103335.06
188093.95
188095.88
188102.22
188121.87
188150.43
188150.99
188136.3
188110.75
188074.47
188026.46
187965.14
187888.26
187792.88
187674.96
187529.79
187350.92
187130.67
186859.31
186524.95
186113.1
185606.04
184983.24
184220.49
183289.98
182160.79
180798.17
179166.98
177229.94
174941.51
172307.6
169282.87
165836.91
161998
157807.06
153211.03
148389.18
143277.77
138037.46
132746.94
127491.42
122387.99
117560.55
113171.92
109439
106757.85
105504.39
104458.32
103315.66
188094.11
188095.99
188102.27
188122.47
188151.96
188152.48
188137.73
188112.17
188075.93
188028.01
187966.83
187890.14
187795.01
187677.38
187532.55
187354.09
187134.33
186863.54
186529.84
186118.76
185612.59
184990.77
184229.1
183299.75
182171.76
180810.29
179180.2
177244.1
174955.69
172322.04
169296.67
165848.41
162006.39
157812.33
153208.75
148382.05
143260.36
138010.79
132709.86
127442.76
122327.67
117488.59
113089.67
109350.12
106686.34
105496.72
104458.12
103303.2
188094.24
188096.08
188102.32
188123
188153.18
188153.62
188138.86
188113.31
188077.13
188029.31
187968.27
187891.75
187796.83
187679.44
187534.9
187356.77
187137.42
186867.11
186533.97
186123.56
185618.15
184997.21
184236.51
183308.2
182181.33
180820.98
179192
177256.91
174968.79
172335.66
169310.15
165860.47
162016.45
157820.36
153211.1
148380.91
143251.06
137994.23
132685
127408.58
122284.07
117435.49
113028.01
109283.32
106633.95
105501.18
104467.52
103300.97
188094.34
188096.15
188102.48
188123.56
188154.19
188154.6
188139.82
188114.28
188078.15
188030.41
187969.49
187893.1
187798.34
187681.13
187536.82
187358.97
187139.95
186870.04
186537.39
186127.55
185622.81
185002.65
184242.82
183315.48
182189.67
180830.4
179202.51
177268.51
174981.01
172348.74
169323.72
165873.61
162028.58
157831.48
153218.17
148385.9
143249.97
137987.76
132672.06
127388.22
122256.09
117399.72
112985.21
109238.11
106604.11
105515.86
104484.33
103310.16
188094.41
188096.25
188102.73
188124.13
188155.11
188155.43
188140.6
188115.07
188078.98
188031.31
187970.47
187894.18
187799.55
187682.5
187538.39
187360.78
187142.05
186872.5
186540.27
186130.94
185626.79
185007.32
184248.29
183321.82
182196.97
180838.73
179211.93
177279.05
174992.36
172361.14
169337.09
165887.38
162042.29
157845.29
153229.55
148396.37
143256.38
137990.49
132670.2
127380.82
122242.84
117380.35
112960.34
109211.77
106590.67
105535.81
104505.27
103325.69
188094.47
188096.41
188103.01
188124.62
188155.76
188155.99
188141.14
188115.62
188079.57
188031.95
187971.18
187895
187800.49
187683.58
187539.66
187362.27
187143.81
186874.58
186542.72
186133.87
185630.26
185011.42
184253.1
183327.44
182203.48
180846.23
179220.48
177288.73
175002.93
172372.78
169349.8
165900.78
162056.14
157859.89
153243.01
148409.89
143267.67
137999.7
132676.63
127383.74
122241.95
117375.36
112951.76
109200.03
106586.76
105557.81
104527.79
103342.02
188094.5
188096.56
188103.24
188124.88
188156.04
188156.21
188141.38
188115.91
188079.91
188032.38
187971.7
187895.61
187801.23
187684.47
187540.72
187363.54
187145.32
186876.37
186544.85
186136.39
185633.25
185014.99
184257.33
183332.4
182209.3
180853
179228.29
177297.66
175012.84
172383.75
169361.9
165913.65
162069.59
157874.12
153256.71
148424
143280.51
138011.43
132686.72
127391.65
122247.45
117378.15
112951.94
109196.36
106587.99
105579.25
104549.59
103356.39
188094.53
188096.63
188103.24
188124.82
188156.06
188156.2
188141.42
188116
188080.05
188032.55
187971.93
187895.93
187801.64
187684.98
187541.37
187364.35
187146.35
186877.65
186546.45
186138.44
185635.79
185018.1
184261.07
183336.85
182214.53
180859.09
179235.34
177305.8
175022.02
172394.01
169373.38
165926
162082.65
157887.93
153270.21
148437.85
143293.38
138023.44
132697.44
127400.63
122254.43
117382.81
112954.02
109195.72
106591.53
105598.32
104569.07
103368.13
188094.54
188096.55
188102.97
188124.42
188155.68
188155.93
188141.23
188115.86
188079.96
188032.47
187971.91
187895.98
187801.77
187685.22
187541.74
187364.87
187147.05
186878.57
186547.61
186139.8
185637.45
185020.2
184263.62
183339.98
182218.37
180863.79
179241.03
177312.61
175029.96
172403.14
169384.02
165937.76
162095.27
157901.31
153283.49
148451.61
143306.62
138036.14
132709.17
127410.96
122263.09
117389.43
112958.23
109197.84
106596.7
105614.4
104584.02
103378.69
188094.55
188096.36
188102.51
188123.84
188155.08
188155.39
188140.69
188115.34
188079.45
188032.02
187971.46
187895.5
187801.28
187684.75
187541.28
187364.45
187146.69
186878.33
186547.55
186139.9
185637.94
185021.16
184265.21
183342.3
182221.58
180867.91
179246.23
177318.96
175037.37
172411.37
169393.32
165947.92
162106.36
157913.67
153296.75
148465.92
143321.22
138050.82
132723.45
127424.4
122275.29
117399.9
112966.42
109204.08
106604.5
105628.32
104596.61
103390.91
188094.54
188096.22
188102.21
188123.5
188154.74
188155.03
188140.32
188114.94
188079.01
188031.53
187970.9
187894.88
187800.57
187683.91
187540.29
187363.29
187145.35
186876.79
186545.82
186138.12
185635.94
185018.74
184262.51
183339.38
182218.57
180864.93
179243.5
177316.85
175036.31
172412.02
169396.55
165953.84
162115.21
157925.84
153311.96
148484.45
143342.41
138073.83
132747.33
127448.47
122299.04
117422.46
112987.66
109222.99
106622.67
105649.19
104616.17
103404.31
188094.54
188096.19
188102.17
188123.48
188154.71
188155
188140.29
188114.91
188078.97
188031.46
187970.81
187894.76
187800.41
187683.68
187539.97
187362.81
187144.64
186875.75
186544.31
186135.96
185632.95
185014.81
184257.37
183332.81
182210.31
180854.78
179231.32
177302.58
175019.96
172394.03
169376.42
165931.45
162089.98
157897.31
153279.31
148447.36
143300.28
138029.04
132701.64
127402.53
122253.14
117375.67
112941.44
109174.79
106571.63
105600.43
104570.29
103373.93
188094.53
188096.19
188102.18
188123.48
188154.71
188155.01
188140.31
188114.93
188079.01
188031.53
187970.91
187894.88
187800.56
187683.87
187540.2
187363.09
187144.97
186876.12
186544.72
186136.33
185633.26
185015
184257.31
183332.31
182209.1
180852.39
179227.09
177295.6
175009.04
172378.28
169354.06
165902.17
162054.2
157855.96
153234.21
148401.22
143256.18
137984.37
132654.8
127353.66
122202.57
117325.08
112886.02
109116.86
106511.48
105540.97
104512.98
103326.47
101319.02
101318.3
101318.39
101318.3
101318.17
101318.04
101317.91
101317.75
101317.55
101317.29
101316.94
101316.49
101315.63
101313.77
101307.6
101311.94
101313.63
101313.75
101313.25
101312.13
101310.25
101307.51
101303.3
101297.84
101290.47
101280.17
101265.89
101246.66
101210.67
101173.52
101319.01
101318.3
101318.39
101318.3
101318.17
101318.04
101317.91
101317.75
101317.55
101317.29
101316.94
101316.49
101315.63
101313.77
101307.61
101311.93
101313.62
101313.75
101313.26
101312.14
101310.26
101307.54
101303.35
101297.92
101290.62
101280.44
101266.36
101247.63
101212.01
101180.39
101319.01
101318.3
101318.39
101318.3
101318.17
101318.04
101317.91
101317.75
101317.55
101317.29
101316.94
101316.49
101315.63
101313.77
101307.62
101311.92
101313.62
101313.75
101313.26
101312.15
101310.27
101307.55
101303.37
101297.96
101290.68
101280.55
101266.54
101248.06
101212.81
101182.9
101319
101318.3
101318.39
101318.3
101318.17
101318.04
101317.91
101317.75
101317.55
101317.29
101316.94
101316.49
101315.63
101313.78
101307.63
101311.91
101313.62
101313.75
101313.26
101312.16
101310.29
101307.59
101303.43
101298.05
101290.84
101280.84
101267.03
101249.08
101214.29
101189.67
101319
101318.3
101318.39
101318.3
101318.17
101318.04
101317.91
101317.75
101317.55
101317.29
101316.94
101316.49
101315.63
101313.79
101307.66
101311.9
101313.62
101313.75
101313.27
101312.17
101310.31
101307.61
101303.48
101298.12
101290.96
101281.04
101267.4
101249.94
101215.77
101194.58
101318.99
101318.3
101318.4
101318.3
101318.17
101318.04
101317.91
101317.75
101317.55
101317.29
101316.94
101316.49
101315.63
101313.81
101307.7
101311.9
101313.62
101313.76
101313.28
101312.19
101310.33
101307.65
101303.54
101298.23
101291.14
101281.37
101267.96
101251.13
101217.64
101200.93
101318.99
101318.3
101318.4
101318.3
101318.17
101318.04
101317.91
101317.75
101317.55
101317.29
101316.94
101316.5
101315.63
101313.83
101307.76
101311.89
101313.62
101313.76
101313.29
101312.2
101310.36
101307.69
101303.61
101298.33
101291.32
101281.7
101268.55
101252.43
101219.79
101206.8
101318.98
101318.31
101318.4
101318.3
101318.17
101318.04
101317.91
101317.75
101317.55
101317.29
101316.94
101316.5
101315.63
101313.86
101307.83
101311.89
101313.61
101313.77
101313.3
101312.22
101310.38
101307.74
101303.69
101298.46
101291.55
101282.12
101269.26
101253.96
101222.32
101212.77
101318.97
101318.31
101318.4
101318.3
101318.17
101318.04
101317.91
101317.75
101317.55
101317.29
101316.94
101316.5
101315.63
101313.89
101307.94
101311.88
101313.61
101313.77
101313.31
101312.23
101310.41
101307.79
101303.77
101298.61
101291.81
101282.6
101270.08
101255.7
101225.27
101218.34
101318.96
101318.32
101318.4
101318.3
101318.17
101318.04
101317.91
101317.75
101317.55
101317.29
101316.94
101316.5
101315.63
101313.94
101308.07
101311.89
101313.6
101313.77
101313.31
101312.25
101310.45
101307.86
101303.88
101298.79
101292.12
101283.15
101271.03
101257.66
101228.74
101223.45
101318.95
101318.33
101318.4
101318.3
101318.18
101318.04
101317.91
101317.75
101317.55
101317.29
101316.94
101316.5
101315.63
101313.99
101308.23
101311.9
101313.59
101313.77
101313.32
101312.27
101310.49
101307.93
101304.01
101298.99
101292.47
101283.79
101272.1
101259.85
101232.84
101227.96
101318.93
101318.34
101318.4
101318.3
101318.18
101318.04
101317.91
101317.76
101317.55
101317.29
101316.94
101316.5
101315.63
101314.06
101308.42
101311.92
101313.58
101313.77
101313.33
101312.3
101310.54
101308.01
101304.15
101299.24
101292.88
101284.52
101273.31
101262.22
101237.73
101232.01
101318.92
101318.35
101318.4
101318.3
101318.18
101318.05
101317.91
101317.76
101317.56
101317.29
101316.94
101316.5
101315.64
101314.13
101308.66
101311.95
101313.58
101313.78
101313.35
101312.33
101310.6
101308.11
101304.33
101299.52
101293.36
101285.35
101274.67
101264.72
101243.46
101236.11
101318.9
101318.36
101318.4
101318.3
101318.18
101318.05
101317.91
101317.76
101317.56
101317.3
101316.95
101316.51
101315.64
101314.22
101308.92
101311.99
101313.58
101313.78
101313.36
101312.36
101310.66
101308.23
101304.53
101299.85
101293.92
101286.3
101276.19
101267.24
101249.81
101240.96
101318.88
101318.37
101318.41
101318.31
101318.18
101318.05
101317.91
101317.76
101317.56
101317.3
101316.95
101316.52
101315.65
101314.31
101309.23
101312.05
101313.58
101313.79
101313.38
101312.4
101310.74
101308.37
101304.77
101300.23
101294.56
101287.38
101277.92
101269.63
101256.45
101246.56
101318.86
101318.39
101318.41
101318.31
101318.18
101318.05
101317.92
101317.76
101317.56
101317.3
101316.96
101316.52
101315.66
101314.42
101309.57
101312.12
101313.59
101313.81
101313.41
101312.45
101310.84
101308.53
101305.04
101300.68
101295.27
101288.62
101279.96
101272.07
101261.9
101254.39
101318.84
101318.4
101318.41
101318.31
101318.19
101318.05
101317.92
101317.77
101317.57
101317.31
101316.96
101316.53
101315.68
101314.54
101309.96
101312.21
101313.6
101313.83
101313.44
101312.51
101310.95
101308.71
101305.36
101301.2
101296.05
101290.06
101281.94
101275.99
101265.01
101259.61
101318.81
101318.42
101318.41
101318.32
101318.19
101318.06
101317.92
101317.77
101317.57
101317.31
101316.97
101316.55
101315.7
101314.67
101310.38
101312.32
101313.62
101313.85
101313.49
101312.58
101311.07
101308.92
101305.71
101301.82
101296.89
101291.68
101284.13
101278.69
101272.05
101265.74
101318.79
101318.43
101318.42
101318.32
101318.19
101318.06
101317.93
101317.77
101317.58
101317.32
101316.98
101316.57
101315.73
101314.81
101310.85
101312.45
101313.65
101313.88
101313.53
101312.66
101311.22
101309.16
101306.1
101302.54
101297.83
101293.23
101287.29
101280.72
101276.25
101271.86
101318.76
101318.45
101318.42
101318.32
101318.2
101318.07
101317.93
101317.78
101317.58
101317.33
101317
101316.59
101315.77
101314.96
101311.35
101312.61
101313.69
101313.93
101313.59
101312.75
101311.38
101309.44
101306.5
101303.37
101298.88
101294.84
101289.87
101284.96
101280.25
101276.55
101318.73
101318.47
101318.43
101318.33
101318.21
101318.08
101317.94
101317.79
101317.59
101317.35
101317.02
101316.62
101315.82
101315.13
101311.88
101312.81
101313.76
101313.98
101313.67
101312.85
101311.56
101309.77
101306.95
101304.22
101300.1
101296.49
101292.18
101288.31
101284.8
101281.7
101318.7
101318.49
101318.43
101318.34
101318.21
101318.08
101317.95
101317.8
101317.61
101317.36
101317.04
101316.66
101315.89