/*--------------------------------*- C++ -*----------------------------------*\
| =========                 |                                                 |
| \\      /  F ield         | OpenFOAM: The Open Source CFD Toolbox           |
|  \\    /   O peration     | Version:  2212                                  |
|   \\  /    A nd           | Website:  www.openfoam.com                      |
|    \\/     M anipulation  |                                                 |
\*---------------------------------------------------------------------------*/
FoamFile
{
    version     2.0;
    format      ascii;
    arch        "LSB;label=32;scalar=64";
    class       volScalarField;
    location    "0.05";
    object      T;
}
// * * * * * * * * * * * * * * * * * * * * * * * * * * * * * * * * * * * * * //

dimensions      [0 0 0 1 0 0 0];

internalField   nonuniform List<scalar> 
18080
(
294.4397
294.43562
294.42926
294.42023
294.40801
294.39201
294.37159
294.34594
294.31405
294.27472
294.22645
294.16744
294.0955
294.00795
293.90158
293.7725
293.61609
293.42687
293.1984
292.92323
292.59285
292.19771
291.72729
291.17026
290.51481
289.749
288.8613
287.84133
286.68005
285.3712
283.91171
282.30196
280.54645
278.65494
276.64035
274.52139
272.31951
270.05998
267.7705
265.48022
263.21899
261.01628
258.90025
256.89691
255.02851
253.31627
251.76637
250.4045
294.43969
294.43562
294.42927
294.42026
294.40807
294.3921
294.37172
294.34612
294.3143
294.27504
294.22687
294.16798
294.09618
294.0088
293.90264
293.77382
293.61773
293.42889
293.20088
292.92628
292.59659
292.20228
291.73284
291.17698
290.5229
289.75868
288.8728
287.85487
286.69586
285.38951
283.93269
282.32577
280.57322
278.68473
276.67318
274.55725
272.35833
270.10166
267.81491
265.52724
263.26847
261.06808
258.95424
256.953
255.08659
253.37622
251.82795
250.46798
294.43968
294.43562
294.42929
294.4203
294.40813
294.39221
294.37188
294.34635
294.31461
294.27545
294.2274
294.16866
294.09704
294.00988
293.90398
293.77547
293.61976
293.43138
293.20393
292.92999
292.60111
292.20776
291.73947
291.18496
290.53247
289.77011
288.88635
287.87085
286.71456
285.41121
283.95765
282.35421
280.60531
278.72056
276.71279
274.60059
272.40528
270.15208
267.86859
265.58397
263.32804
261.1303
259.01895
257.02007
255.15593
253.44775
251.90142
250.54361
294.43968
294.43562
294.4293
294.42034
294.4082
294.39232
294.37205
294.34658
294.31493
294.27588
294.22796
294.16937
294.09794
294.01101
293.9054
293.77724
293.62195
293.43409
293.20726
292.93409
292.60611
292.21385
291.74685
291.19388
290.54318
289.78287
288.90147
287.88861
286.73523
285.43507
283.98493
282.38509
280.6399
278.75893
276.75491
274.64638
272.4546
270.20471
267.92431
265.64254
263.38923
261.19392
259.08485
257.0882
255.22626
253.52033
251.97598
250.62087
294.43967
294.43561
294.42931
294.42038
294.40827
294.39244
294.37222
294.34683
294.31526
294.27632
294.22854
294.17012
294.09889
294.01221
293.9069
293.77911
293.62428
293.43696
293.21081
292.93844
292.61145
292.22036
291.75476
291.20342
290.55464
289.79655
288.91766
287.90763
286.75739
285.46063
284.01414
282.41811
280.67683
278.79979
276.79963
274.6948
272.50649
270.2598
267.9823
265.70313
263.45216
261.259
259.15197
257.15734
255.29752
253.5939
252.05173
250.69962
294.43966
294.43561
294.42933
294.42042
294.40835
294.39256
294.37241
294.34709
294.31562
294.2768
294.22915
294.17091
294.0999
294.01349
293.9085
293.78112
293.62678
293.44007
293.21466
292.94319
292.61727
292.22747
291.7634
291.21386
290.56716
289.81145
288.93527
287.92825
286.78129
285.48808
284.04532
282.45314
280.71576
278.84256
276.84608
274.74472
272.55955
270.31567
268.0406
265.76352
263.51437
261.32284
259.21739
257.22447
255.36661
253.66536
252.12563
250.77714
294.43965
294.4356
294.42934
294.42046
294.40844
294.39271
294.37262
294.34738
294.31602
294.27732
294.22983
294.17178
294.101
294.01489
293.91026
293.78332
293.62952
293.44348
293.21887
292.94838
292.62364
292.23524
291.77283
291.22523
290.58077
289.82762
288.9543
287.95045
286.80693
285.51738
284.07844
282.49014
280.75661
278.88714
276.89412
274.79588
272.61342
270.37178
268.09852
265.82283
263.57478
261.3842
259.27977
257.28814
255.43207
253.73333
252.19646
250.85238
294.43963
294.4356
294.42936
294.42052
294.40855
294.39288
294.37287
294.34773
294.31647
294.27792
294.2306
294.17276
294.10225
294.01646
293.91223
293.78579
293.63259
293.44729
293.22358
292.95418
292.63074
292.24388
291.78328
291.23778
290.59573
289.8453
288.97501
287.97446
286.83446
285.5486
284.11344
282.52889
280.79897
278.93285
276.9428
274.84707
272.66656
270.42631
268.15388
265.87857
263.63061
261.44005
259.33584
257.34497
255.49047
253.79446
252.26108
250.92253
294.43962
294.4356
294.42939
294.4206
294.40869
294.39309
294.37318
294.34815
294.31703
294.27864
294.23152
294.17393
294.10371
294.01829
293.91452
293.78863
293.63612
293.45165
293.22894
292.96074
292.63874
292.25357
291.79494
291.2517
290.61222
289.86466
288.99751
288.00034
286.86389
285.58167
284.15014
282.56907
280.84236
278.97905
276.99125
274.89714
272.71754
270.47748
268.20461
265.92835
263.67916
261.48744
259.38248
257.39173
255.53862
253.84569
252.31672
250.98522
294.43961
294.4356
294.42944
294.42071
294.40888
294.39339
294.37359
294.34869
294.31774
294.27954
294.23266
294.17535
294.10548
294.02049
293.91724
293.79199
293.64026
293.45673
293.23516
292.96831
292.6479
292.26459
291.8081
291.2673
290.63054
289.88597
289.02204
288.02826
286.89527
285.61651
284.18827
282.6102
280.88603
279.02467
277.03806
274.94432
272.76419
270.52274
268.24771
265.96878
263.71669
261.52229
259.4154
257.42404
255.57219
253.88291
252.35963
251.03722
294.4396
294.43562
294.42952
294.42087
294.40915
294.39378
294.37413
294.34942
294.31866
294.2807
294.2341
294.17714
294.10769
294.0232
293.92056
293.79606
293.64523
293.46278
293.2425
292.97716
292.65852
292.27726
291.82309
291.28488
290.65098
289.90948
289.04879
288.05831
286.92859
285.65292
284.22746
282.65165
280.92906
279.06846
277.08162
274.98659
272.80406
270.55918
268.27987
265.9961
263.73908
261.54022
259.43002
257.43727
255.58668
253.90192
252.38612
251.07547
294.43958
294.43566
294.42963
294.42111
294.40953
294.39434
294.37489
294.35039
294.31989
294.28223
294.23598
294.17943
294.11048
294.02659
293.92469
293.80106
293.65128
293.47007
293.25126
292.98764
292.67097
292.29195
291.84028
291.30484
290.6739
289.93552
289.078
288.09064
286.96382
285.6907
284.26723
282.69265
280.97035
279.10894
277.11999
275.02156
272.83427
270.58343
268.29722
266.00603
263.74163
261.53622
259.42119
257.42628
255.57713
253.89819
252.39227
251.09678
294.43957
294.43572
294.42981
294.42144
294.41007
294.39511
294.37592
294.35171
294.32154
294.28424
294.23843
294.18238
294.11404
294.03088
293.92985
293.80726
293.6587
293.47894
293.2618
293.00011
292.68564
292.30908
291.86012
291.32758
290.6997
289.96441
289.10991
288.12534
287.00091
285.72956
284.30704
282.73236
281.00868
279.14447
277.15111
275.04667
272.85178
270.59196
268.29575
265.99409
263.71953
261.50523
259.38371
257.38596
255.53877
253.86748
252.3746
251.09847
294.43957
294.43582
294.43007
294.42192
294.41082
294.39616
294.37731
294.35347
294.32371
294.28688
294.2416
294.18618
294.11858
294.03629
293.93629
293.81492
293.66779
293.4897
293.27448
293.01498
292.70296
292.32909
291.88303
291.35355
290.72876
289.99649
289.14477
288.16256
287.0398
285.76925
284.34638
282.76992
281.04284
279.17343
277.17291
275.05938
272.85355
270.58124
268.27149
265.95591
263.66806
261.4423
259.31261
257.31149
255.46719
253.80603
252.33021
251.07852
294.43956
294.43597
294.43044
294.42258
294.41183
294.39757
294.37915
294.35578
294.32653
294.29027
294.24564
294.19098
294.12426
294.04301
293.94423
293.8243
293.67884
293.50266
293.28963
293.03258
292.72327
292.35234
291.90938
291.38307
290.7614
290.03204
289.18279
288.20236
287.08044
285.80951
284.38473
282.80456
281.07171
279.19436
277.18353
275.05744
272.83693
270.54823
268.22097
265.88769
263.58314
261.34323
259.2037
257.19895
255.35898
253.7112
252.25742
251.03607
294.43957
294.43618
294.43094
294.42347
294.41318
294.39942
294.38153
294.35873
294.33009
294.29452
294.25067
294.1969
294.13123
294.0512
293.95384
293.83556
293.69201
293.51802
293.30745
293.05315
292.74683
292.37911
291.93946
291.41644
290.79789
290.07126
289.2241
288.24486
287.12285
285.85024
284.42183
282.83578
281.09456
279.20624
277.18164
275.03921
272.79995
270.49063
268.14163
265.7866
263.46177
261.20492
259.05399
257.04567
255.21211
253.58178
252.15599
250.97156
294.43959
294.43646
294.43161
294.42463
294.41491
294.40177
294.38452
294.36239
294.33447
294.29969
294.25674
294.20401
294.13953
294.0609
293.96516
293.84875
293.70736
293.5358
293.32798
293.07669
292.77362
292.40928
291.97313
291.45357
290.83816
290.1141
289.26863
288.28981
287.16669
285.89109
284.45735
282.86322
281.11102
279.20862
277.16676
275.0041
272.74193
270.40763
268.03254
265.65161
263.30286
261.02631
258.8626
256.85118
255.02678
253.41885
252.02785
250.88733
294.43961
294.43683
294.43246
294.4261
294.41707
294.40465
294.38814
294.36677
294.33966
294.30577
294.26382
294.21224
294.14909
294.072
293.97806
293.86372
293.72469
293.55582
293.35096
293.10294
292.80341
292.44287
292.01027
291.49424
290.88212
290.16074
289.31691
288.33846
287.21316
285.93311
284.49214
282.88769
281.12186
279.20236
277.1398
274.95314
272.66397
270.30043
267.89493
265.48398
263.10766
260.80869
258.63095
256.61727
254.8054
253.22559
251.87679
250.78703
294.43966
294.43729
294.43352
294.4279
294.41968
294.40809
294.39239
294.37183
294.34559
294.31265
294.27178
294.22143
294.15971
294.08428
293.99226
293.88014
293.74363
293.5776
293.37597
293.13135
292.83546
292.47873
292.05046
291.5383
290.92947
290.21053
289.36796
288.38909
287.26218
285.97738
284.5281
282.91127
281.12929
279.1897
277.10315
274.88888
272.56883
270.17196
267.73192
265.28693
262.87947
260.55541
258.36249
256.34768
254.55227
253.00693
251.70793
250.675
294.43971
294.43784
294.43477
294.43003
294.42275
294.41205
294.39719
294.37748
294.35212
294.32015
294.28037
294.23129
294.17105
294.09734
294.00731
293.89747
293.7636
293.60051
293.40206
293.16121
292.86932
292.51659
292.09205
291.58345
290.97762
290.26072
289.41879
288.43866
287.30812
286.01714
284.55867
282.92921
281.1296
279.16787
277.05477
274.80992
272.45582
270.02224
267.54422
265.06183
262.62019
260.26879
258.05999
256.04573
254.27147
252.76764
251.52589
250.55436
294.43978
294.43848
294.43622
294.43249
294.42624
294.41645
294.40243
294.38353
294.35903
294.32802
294.28932
294.2415
294.18272
294.11071
294.02268
293.91515
293.78384
293.62379
293.42879
293.19147
292.90332
292.55445
292.13372
291.62863
291.02568
290.31066
289.46911
288.48736
287.35282
286.05486
284.58555
282.94128
281.12313
279.13795
276.99684
274.71946
272.32907
269.85625
267.3376
264.81515
262.33683
259.95624
257.73113
255.71943
253.97157
252.51665
251.33858
250.43049
294.43985
294.43917
294.43782
294.43523
294.43007
294.42119
294.40794
294.38979
294.36609
294.33597
294.2983
294.25167
294.19429
294.12395
294.0378
293.9325
293.80387
293.64669
293.45481
293.22092
292.9364
292.59126
292.17416
291.67243
291.07223
290.35895
289.51764
288.53402
287.3953
286.09014
284.60963
282.94994
281.11207
279.10259
276.93219
274.62051
272.19275
269.67935
267.11852
264.55423
262.03739
259.62615
257.38452
255.3776
253.66184
252.26319
251.15346
250.30741
294.43992
294.43989
294.4395
294.43818
294.43413
294.42609
294.41352
294.39603
294.37305
294.34373
294.30699
294.26148
294.20539
294.13657
294.05232
293.94912
293.82282
293.66829
293.47936
293.24867
292.96755
292.62591
292.21227
291.71372
291.11612
290.40446
289.5633
288.57768
287.43484
286.12255
284.63084
282.95577
281.09844
279.06419
276.86463
274.51989
272.05214
269.49724
266.8938
264.28699
261.73062
259.28777
257.02959
255.0297
253.35206
252.0166
250.97734
250.18789
294.43999
294.44058
294.44119
294.44124
294.43829
294.43098
294.41897
294.40205
294.37968
294.35107
294.31516
294.27061
294.21576
294.14836
294.06569
293.96435
293.84017
293.68804
293.5018
293.27404
292.99604
292.65764
292.24718
291.75157
291.15637
290.44621
289.60516
288.61749
287.47075
286.15168
284.64907
282.95908
281.08314
279.02463
276.79698
274.41898
271.91454
269.31827
266.67059
264.02143
261.42546
258.95062
256.67593
254.68509
253.05175
251.78551
250.81508
250.07124
294.44005
294.4412
294.44279
294.44433
294.44241
294.43568
294.42412
294.40766
294.38581
294.35779
294.32261
294.27896
294.22511
294.1589
294.07762
293.97791
293.85561
293.70563
293.52178
293.29663
293.02143
292.68593
292.27834
291.78539
291.19237
290.48358
289.64264
288.65291
287.5026
286.17726
284.66431
282.96018
281.06694
278.98508
276.73102
274.32137
271.78118
269.14652
266.45847
263.76437
261.12921
258.62267
256.33164
254.35149
252.76887
251.57557
250.66864
249.95853
294.44009
294.44171
294.44424
294.44735
294.44634
294.44005
294.42883
294.41275
294.39131
294.36381
294.32924
294.2863
294.2333
294.16811
294.08804
293.98974
293.86906
293.72094
293.53917
293.31632
293.04357
292.71061
292.30555
291.81496
291.22386
290.51628
289.67546
288.68369
287.5302
286.19917
284.67658
282.95929
281.05038
278.94631
276.66809
274.2286
271.65479
268.98411
266.25747
263.52538
260.84852
258.31082
256.00369
254.03533
252.50975
251.3916
250.54177
249.84902
294.44012
294.44209
294.4455
294.45021
294.44997
294.44398
294.43303
294.41723
294.39615
294.36905
294.33496
294.29262
294.24033
294.176
294.09695
293.99984
293.88055
293.73401
293.55403
293.33314
293.06249
292.73173
292.32885
291.8403
291.25087
290.54433
289.70362
288.70985
287.55355
286.21744
284.68599
282.95665
281.03381
278.90886
276.60902
274.14173
271.53686
268.83291
266.07062
263.30154
260.59074
258.01929
255.6962
253.74009
252.27738
251.23335
250.42987
249.73709
294.44014
294.44234
294.44655
294.45284
294.45323
294.44743
294.43668
294.42111
294.40029
294.3735
294.33981
294.29796
294.24626
294.18265
294.10444
294.00833
293.8902
293.74499
293.56651
293.34726
293.0784
292.7495
292.34846
291.86164
291.2736
290.56792
289.7273
288.73156
287.57281
286.2322
284.69269
282.95241
281.0174
278.87297
276.55418
274.06121
271.42809
268.69387
265.89878
263.0958
260.35196
257.75248
255.41312
253.46906
252.07477
251.10268
250.3342
249.6235
294.44015
294.44248
294.4474
294.45521
294.45606
294.45039
294.43978
294.42439
294.40377
294.37723
294.34386
294.30241
294.25119
294.18817
294.11065
294.01537
293.8982
293.75408
293.57685
293.35897
293.09158
292.76421
292.3647
291.8793
291.2924
290.5874
289.74683
288.7492
287.58829
286.24369
284.69691
282.94677
281.00121
278.83876
276.5036
273.98707
271.32857
268.5671
265.74217
262.9083
260.13378
257.50895
255.15144
253.21866
251.8975
250.99034
250.24625
249.5006
294.44015
294.44252
294.44807
294.4573
294.45847
294.45288
294.44238
294.42712
294.40665
294.38031
294.3472
294.30607
294.25524
294.1927
294.11575
294.02113
293.90474
293.76152
293.5853
293.36853
293.10234
292.77621
292.37792
291.89366
291.30762
290.60307
289.76245
288.76295
287.60007
286.25187
284.69854
282.93952
280.98485
278.80581
276.45664
273.91861
271.23756
268.45172
265.5999
262.73812
259.93579
257.28642
254.91403
252.99114
251.74628
250.89492
250.16602
249.37084
294.44015
294.4425
294.4486
294.45909
294.46049
294.45496
294.44453
294.42935
294.40901
294.38284
294.34998
294.30922
294.25888
294.19699
294.12086
294.02724
293.91198
293.76999
293.59508
293.37964
293.11476
292.78989
292.39272
291.90937
291.32396
290.61941
289.7784
288.77682
287.61187
286.26017
284.70065
282.93337
280.97056
278.77613
276.41482
273.85704
271.15584
268.34812
265.47201
262.58505
259.75741
257.08539
254.69815
252.78365
251.61503
250.80779
250.08622
249.22938
294.44015
294.44244
294.44901
294.46061
294.46216
294.45669
294.44638
294.4314
294.41143
294.38593
294.35416
294.31487
294.26631
294.20652
294.13254
294.04097
293.9276
293.7874
293.61421
293.40047
293.13729
292.81414
292.41866
291.93691
291.35298
290.64911
289.80806
288.80448
287.63736
286.28194
284.716
282.94017
280.96898
278.75874
276.38503
273.80716
271.08589
268.25627
265.35585
262.44372
259.59052
256.89502
254.49051
252.58069
251.49532
250.72911
250.01614
249.09632
294.44015
294.44236
294.44932
294.4619
294.46364
294.45845
294.44873
294.43499
294.41691
294.39399
294.36455
294.32712
294.27982
294.22067
294.14703
294.05584
293.9431
293.80387
293.63207
293.42015
293.15928
292.83893
292.44672
291.96874
291.38842
290.68919
289.85262
288.85226
287.68883
286.33637
284.77157
282.99568
281.02534
278.80874
276.43358
273.84749
271.12038
268.28422
265.37531
262.45459
259.59329
256.89332
254.49216
252.61654
251.63327
250.91012
250.20916
249.22998
294.44014
294.44228
294.44955
294.46307
294.46544
294.46165
294.4544
294.44356
294.42765
294.40547
294.37606
294.33839
294.2909
294.2317
294.15829
294.0677
293.95596
293.81816
293.64829
293.43885
293.1811
292.86459
292.47699
292.00443
291.42934
290.7353
289.90531
288.91217
287.75808
286.41622
284.86264
283.10063
281.14867
278.94211
276.5861
274.0153
271.30993
268.49427
265.60433
262.70319
259.86263
257.18746
254.81931
253.00341
252.1817
251.53676
250.86892
249.87096
294.44014
294.44219
294.44975
294.46468
294.4693
294.46891
294.46432
294.45417
294.4379
294.41493
294.38493
294.34692
294.29944
294.24069
294.16811
294.0787
293.96852
293.83273
293.66531
293.45888
293.20485
292.89285
292.51057
292.04396
291.47443
290.78753
289.96698
288.98468
287.84465
286.5195
284.98631
283.25268
281.3389
279.18122
276.87768
274.35288
271.6931
268.92642
266.09226
263.25355
260.48262
257.88734
255.61442
253.93704
253.30837
252.68255
252.00395
251.04638
294.44013
294.44208
294.45026
294.46825
294.47696
294.47878
294.47405
294.46271
294.4454
294.42191
294.3917
294.35392
294.307
294.24913
294.1778
294.08998
293.98177
293.84833
293.68386
293.48114
293.23166
292.9252
292.54968
292.09134
291.53399
290.86176
290.05769
289.09407
287.97842
286.68256
285.18765
283.49771
281.62779
279.52595
277.28071
274.81607
272.21997
269.52455
266.7659
264.00792
261.32225
258.81803
256.64319
255.08696
254.53334
253.94766
253.32399
252.40633
294.44004
294.44202
294.45217
294.47504
294.48649
294.48757
294.48118
294.46865
294.45068
294.42709
294.3972
294.36013
294.31425
294.25776
294.18825
294.10283
293.99764
293.86791
293.70799
293.51081
293.26799
292.96972
292.60443
292.1593
291.62287
290.9743
290.19546
289.25972
288.17518
286.91328
285.45426
283.79829
281.96233
279.89063
277.69758
275.2928
272.77009
270.14823
267.46576
264.78706
262.18301
259.76271
257.67521
256.20519
255.65274
255.24102
254.79238
253.84195
294.43964
294.44247
294.45675
294.48383
294.49484
294.49377
294.4858
294.47262
294.45459
294.4314
294.40232
294.36642
294.32215
294.26782
294.20108
294.11917
294.01842
293.89424
293.74078
293.55119
293.31736
293.03002
292.67778
292.24771
291.7269
291.09813
290.34432
289.43668
288.3808
287.14838
285.7154
284.08905
282.29452
280.26515
278.12094
275.7713
273.31366
270.76019
268.15006
265.54646
263.01867
260.67473
258.66451
257.23682
256.82595
256.63145
256.38015
255.33485
294.43853
294.4444
294.46472
294.49238
294.50074
294.49762
294.48875
294.4755
294.45788
294.43555
294.40771
294.37347
294.33137
294.27971
294.21604
294.13763
294.04091
293.92148
293.77376
293.59139
293.36639
293.08996
292.75072
292.33589
291.83189
291.22352
290.49502
289.61727
288.59619
287.40103
286.00475
284.4141
282.66307
280.67127
278.57021
276.26868
273.86262
271.36648
268.81614
266.27391
263.8085
261.52739
259.58111
258.19926
258.14149
258.12403
258.01818
256.85058
294.43641
294.44869
294.47465
294.4999
294.50432
294.49977
294.49064
294.47777
294.46092
294.43968
294.41322
294.38064
294.34046
294.29101
294.22998
294.15469
294.06169
293.9467
293.80435
293.62882
293.41212
293.14599
292.81898
292.41877
291.93186
291.34416
290.641
289.79436
288.81202
287.66047
286.31584
284.7785
283.08448
281.14301
279.09504
276.84454
274.4849
272.04199
269.54328
267.05212
264.63814
262.40894
260.5175
259.24356
259.50108
259.58992
259.53227
258.32203
294.4335
294.45521
294.48286
294.50478
294.50581
294.5006
294.49176
294.47956
294.46359
294.44341
294.41813
294.38692
294.34833
294.30073
294.24197
294.16945
294.07978
293.96883
293.83139
293.66209
293.45285
293.196
292.87999
292.49311
292.02214
291.45391
290.77447
289.95693
289.01083
287.90048
286.6102
285.13612
283.50909
281.63842
279.66201
277.4816
275.18913
272.81556
270.38266
267.95359
265.5977
263.4218
261.58129
260.43481
260.76515
260.8468
260.75369
259.51974
294.43068
294.46211
294.48738
294.50622
294.50583
294.50068
294.49244
294.48097
294.46582
294.44652
294.42224
294.39215
294.35488
294.30886
294.25202
294.18185
294.09503
293.98755
293.85436
293.69039
293.4875
293.23853
292.93193
292.5566
292.09961
291.54848
290.88983
290.09768
289.18266
288.10729
286.8641
285.44454
283.8764
282.07264
280.16746
278.06139
275.84872
273.55403
271.20045
268.84841
266.56382
264.44929
262.65473
261.54335
261.79893
261.80482
261.63348
260.3416
294.4289
294.46684
294.48852
294.50575
294.50524
294.50056
294.49296
294.48214
294.46767
294.44908
294.4256
294.39643
294.36024
294.31552
294.26027
294.19203
294.10757
294.00297
293.87335
293.7137
293.51604
293.27349
292.97467
292.60901
292.1639
291.62697
290.98572
290.21471
289.32521
288.27861
287.07403
285.6975
284.17605
282.42534
280.57762
278.53198
276.38511
274.15603
271.86945
269.58396
267.36164
265.30043
263.5396
262.41478
262.58279
262.48587
262.25517
260.88423
294.42842
294.46858
294.48785
294.50472
294.50461
294.50047
294.49342
294.48311
294.46916
294.45109
294.42824
294.39979
294.36445
294.32081
294.26683
294.20014
294.11759
294.01535
293.88868
293.73243
293.53905
293.30159
293.00914
292.65142
292.21555
291.69076
291.06358
290.30969
289.44056
288.4175
287.24375
285.90049
284.41532
282.70577
280.90274
278.90398
276.80783
274.62947
272.39442
270.15958
267.98333
265.96093
264.21891
263.07154
263.15833
262.96082
262.69626
261.25833
294.4287
294.46821
294.48688
294.50385
294.50416
294.50046
294.49378
294.4838
294.4702
294.45249
294.4301
294.40218
294.36748
294.32467
294.27168
294.20621
294.12519
294.02485
293.90059
293.74692
293.55706
293.3236
293.03635
292.6851
292.25799
291.74166
291.12592
290.38575
289.53272
288.52908
287.37925
286.06158
284.60444
282.92672
281.15811
279.19539
277.13809
274.99874
272.80327
270.6067
268.46394
266.46944
264.73517
263.56199
263.57219
263.2919
262.97347
261.54448
294.42908
294.4673
294.48628
294.50339
294.50393
294.50048
294.49398
294.48416
294.47075
294.45326
294.43113
294.40353
294.36924
294.32696
294.27464
294.21001
294.13007
294.03111
293.90866
293.75698
293.56989
293.33951
293.05646
292.71041
292.28964
291.78106
291.17459
290.44556
289.60534
288.61796
287.4857
286.18791
284.75261
283.09978
281.35804
279.42352
277.3967
275.28787
273.12322
270.95585
268.83748
266.86462
265.12919
263.92827
263.86557
263.51372
263.16068
261.8073
294.42926
294.4668
294.48608
294.50324
294.50386
294.50048
294.49404
294.48428
294.47094
294.45352
294.43149
294.40402
294.36989
294.32784
294.27581
294.21157
294.13214
294.03388
293.91238
293.76193
293.57651
293.34821
293.06802
292.72562
292.30937
291.8067
291.20733
290.48688
289.65643
288.68234
287.56169
286.27962
284.86156
283.22854
281.50817
279.59618
277.59386
275.50918
273.36865
271.22384
269.12336
267.17055
265.42583
264.19725
264.06674
263.65279
263.30961
262.06953
294.4293
294.46669
294.48605
294.50322
294.50385
294.50048
294.49406
294.4843
294.47097
294.45357
294.43156
294.40412
294.37003
294.32802
294.27605
294.21189
294.13257
294.03447
293.91318
293.76303
293.57803
293.35031
293.07091
292.72962
292.31505
291.81421
291.21759
290.50077
289.67491
288.70715
287.59326
286.3207
284.91365
283.2938
281.5881
279.69201
277.70705
275.63971
273.51668
271.38842
269.30337
267.30641
265.60955
264.35924
264.17627
263.72852
263.40698
262.42159
294.44354
294.44262
294.44272
294.44347
294.44435
294.44524
294.44611
294.4469
294.44755
294.44804
294.44844
294.44837
294.44839
294.44364
294.44832
294.44959
294.44997
294.44928
294.44822
294.44693
294.44576
294.44337
294.44037
294.43609
294.43167
294.42416
294.42049
294.38235
294.42928
294.18951
294.44326
294.44263
294.44269
294.44342
294.44428
294.44517
294.44604
294.44682
294.44747
294.44796
294.44837
294.4483
294.44832
294.44356
294.44828
294.44956
294.44996
294.44929
294.44824
294.44696
294.44577
294.44339
294.44037
294.436
294.43136
294.42315
294.41817
294.37667
294.41287
294.16762
294.44283
294.44259
294.44263
294.44331
294.44415
294.44502
294.44588
294.44666
294.44731
294.4478
294.44821
294.44815
294.44815
294.44334
294.44819
294.44953
294.44995
294.44931
294.44827
294.44699
294.44577
294.44337
294.4402
294.43551
294.43021
294.4206
294.41323
294.3694
294.39887
294.16328
294.44233
294.44246
294.44253
294.44314
294.44395
294.4448
294.44564
294.44641
294.44705
294.44754
294.44795
294.44788
294.44785
294.44293
294.44802
294.44949
294.44992
294.44934
294.44832
294.44702
294.44573
294.44323
294.4398
294.4346
294.42847
294.41765
294.40879
294.36467
294.39338
294.1725
294.44182
294.44222
294.44236
294.44291
294.44368
294.44449
294.44531
294.44605
294.44668
294.44716
294.44757
294.44748
294.44737
294.4423
294.44774
294.44945
294.44988
294.44936
294.44836
294.44704
294.44564
294.443
294.43925
294.43356
294.42683
294.41544
294.40641
294.3636
294.39091
294.19561
294.44133
294.44187
294.44209
294.44261
294.44332
294.4441
294.44487
294.44558
294.44619
294.44664
294.44703
294.4469
294.44668
294.44147
294.44729
294.44937
294.44983
294.44937
294.44839
294.44704
294.44551
294.44272
294.4387
294.43269
294.42572
294.41432
294.40566
294.36441
294.38947
294.22318
294.44087
294.44142
294.4417
294.4422
294.44287
294.4436
294.44432
294.44498
294.44555
294.44598
294.44633
294.44614
294.44579
294.44045
294.44665
294.44918
294.44973
294.44935
294.44839
294.44701
294.44538
294.44248
294.43827
294.43215
294.4252
294.414
294.40585
294.36651
294.38783
294.25338
294.44047
294.44092
294.4412
294.44167
294.4423
294.44298
294.44365
294.44426
294.44477
294.44515
294.44546
294.44519
294.44474
294.43928
294.44582
294.44881
294.44957
294.44928
294.44835
294.44695
294.44526
294.44228
294.438
294.4319
294.42504
294.41407
294.40648
294.36941
294.38623
294.28139
294.44013
294.44042
294.44063
294.44103
294.44161
294.44224
294.44286
294.4434
294.44386
294.44418
294.44443
294.4441
294.44359
294.43804
294.4448
294.44821
294.44927
294.44911
294.44824
294.44685
294.44513
294.44212
294.43784
294.4318
294.42507
294.41438
294.40734
294.37304
294.38492
294.3045
294.43987
294.43997
294.44004
294.44034
294.44084
294.44141
294.44196
294.44245
294.44284
294.44311
294.44331
294.44293
294.44244
294.43681
294.44366
294.4474
294.44876
294.4488
294.44802
294.44667
294.44495
294.44195
294.43772
294.43174
294.42516
294.41482
294.40822
294.37722
294.38476
294.32066
294.43969
294.43961
294.43952
294.43969
294.44008
294.44056
294.44104
294.44146
294.44179
294.44201
294.44218
294.44179
294.44141
294.43574
294.44248
294.4464
294.448
294.44827
294.44762
294.44634
294.44465
294.44172
294.43753
294.43165
294.42525
294.41531
294.40902
294.38155
294.38606
294.33302
294.43957
294.43935
294.43912
294.43915
294.43941
294.43979
294.44019
294.44055
294.44083
294.44101
294.44117
294.4408
294.44059
294.43493
294.44135
294.44528
294.44703
294.44749
294.44698
294.44581
294.44416
294.44136
294.43723
294.43146
294.42525
294.41581
294.40973
294.38589
294.38717
294.3476
294.43951
294.4392
294.43886
294.43877
294.43893
294.43922
294.43955
294.43984
294.44008
294.44023
294.44039
294.44007
294.44004
294.43448
294.4404
294.44416
294.44593
294.44649
294.4461
294.44503
294.44347
294.4408
294.43677
294.43114
294.42516
294.41631
294.41032
294.39069
294.3879
294.35998
294.4395
294.43913
294.43873
294.43857
294.43865
294.43888
294.43915
294.4394
294.43961
294.43974
294.43991
294.43963
294.43976
294.4344
294.4397
294.44314
294.44487
294.44542
294.4451
294.44412
294.44265
294.44014
294.43623
294.4308
294.42506
294.41691
294.41086
294.39515
294.39326
294.36651
294.43951
294.43911
294.43868
294.43848
294.43854
294.43873
294.43897
294.4392
294.43939
294.43952
294.43969
294.43944
294.43968
294.43459
294.43928
294.44233
294.44395
294.44449
294.44419
294.44326
294.44187
294.43952
294.43579
294.43059
294.42509
294.41763
294.41196
294.39766
294.4002
294.38201
294.43954
294.43912
294.43867
294.43847
294.43851
294.43869
294.43893
294.43914
294.43932
294.43945
294.43964
294.4394
294.43971
294.43494
294.43908
294.44175
294.44325
294.44376
294.44345
294.44258
294.44124
294.43909
294.43557
294.43061
294.42535
294.4185
294.41336
294.40326
294.39662
294.39474
294.43958
294.43914
294.43869
294.43848
294.43852
294.43871
294.43894
294.43915
294.43934
294.43947
294.43966
294.43942
294.43979
294.43538
294.43905
294.4414
294.44276
294.44325
294.44293
294.44212
294.44083
294.43889
294.4356
294.43089
294.42592
294.41979
294.41464
294.4099
294.40197
294.39649
294.43963
294.43917
294.43872
294.43851
294.43855
294.43874
294.43897
294.43919
294.43937
294.43951
294.43971
294.43948
294.43989
294.43586
294.43912
294.44121
294.44248
294.44294
294.44262
294.44186
294.44061
294.43887
294.43581
294.43136
294.42686
294.42164
294.41718
294.41267
294.4097
294.40502
294.43967
294.4392
294.43875
294.43854
294.43859
294.43878
294.43901
294.43923
294.43942
294.43956
294.43976
294.43954
294.44
294.43637
294.43925
294.44115
294.44234
294.44278
294.44246
294.44176
294.44054
294.43899
294.43613
294.43205
294.42813
294.42381
294.42096
294.41511
294.41253
294.41046
294.43972
294.43924
294.43878
294.43857
294.43862
294.43882
294.43905
294.43927
294.43947
294.43961
294.43982
294.43962
294.44011
294.43692
294.43941
294.44117
294.4423
294.44273
294.44241
294.44178
294.44059
294.43919
294.43653
294.433
294.42929
294.42718
294.42239
294.41825
294.41495
294.41302
294.43977
294.43927
294.43881
294.43861
294.43866
294.43886
294.43909
294.43932
294.43952
294.43967
294.43989
294.43971
294.44023
294.43749
294.4396
294.44124
294.44232
294.44275
294.44243
294.44188
294.44074
294.43947
294.43705
294.43395
294.43086
294.42872
294.42387
294.42178
294.41923
294.41738
294.43982
294.43931
294.43884
294.43864
294.4387
294.4389
294.43914
294.43937