/*--------------------------------*- C++ -*----------------------------------*\
| =========                 |                                                 |
| \\      /  F ield         | OpenFOAM: The Open Source CFD Toolbox           |
|  \\    /   O peration     | Version:  2212                                  |
|   \\  /    A nd           | Website:  www.openfoam.com                      |
|    \\/     M anipulation  |                                                 |
\*---------------------------------------------------------------------------*/
FoamFile
{
    version     2.0;
    format      ascii;
    arch        "LSB;label=32;scalar=64";
    class       volVectorField;
    location    "0.05";
    object      U;
}
// * * * * * * * * * * * * * * * * * * * * * * * * * * * * * * * * * * * * * //

dimensions      [0 1 -1 0 0 0 0];

internalField   nonuniform List<vector> 
18080
(
(23.452171 2.1190187e-11 -0.00062501528)
(23.584228 3.6360292e-11 -0.0030762646)
(23.818807 -8.5013984e-10 -0.0051987932)
(24.154653 7.4039672e-11 -0.0074996186)
(24.606194 9.7063216e-11 -0.010039147)
(25.189646 1.0305459e-10 -0.012876814)
(25.920159 -1.2676645e-09 -0.016043146)
(26.813483 -1.0656477e-09 -0.019558794)
(27.886919 -9.2906605e-10 -0.023436159)
(29.159256 -2.1917216e-10 -0.027683505)
(30.650581 -7.9345884e-10 -0.032304976)
(32.382329 -7.4097875e-10 -0.037301327)
(34.3774 -6.9565042e-10 -0.042668148)
(36.660304 -1.1236612e-10 -0.048396422)
(39.257114 -1.2136326e-10 -0.054466317)
(42.195409 -1.1308614e-10 -0.060845947)
(45.503987 -1.0835755e-10 -0.067479019)
(49.212456 -1.1367892e-10 -0.074262742)
(53.350591 -5.4240594e-10 -0.080960348)
(57.947614 -5.0893521e-10 -0.08633132)
(63.031016 -8.7582389e-10 -0.092312995)
(68.625274 -4.0709152e-11 -0.09856489)
(74.750579 -4.3480159e-11 -0.10466059)
(81.421274 3.1470792e-10 -0.11034055)
(88.644127 3.0350407e-10 -0.11552765)
(96.41697 2.9836763e-10 -0.1201109)
(104.72731 2.9132561e-10 -0.12394122)
(113.55109 2.8696168e-10 -0.12687319)
(122.85363 2.8195323e-10 -0.12877326)
(132.58671 2.7718919e-10 -0.12965686)
(142.69143 4.0844268e-10 -0.12946941)
(153.09937 4.0327753e-10 -0.12820918)
(163.7328 5.0516752e-10 -0.12599064)
(174.50601 4.8806239e-10 -0.12292842)
(185.33181 3.7000124e-10 -0.11902425)
(196.11685 3.64938e-10 -0.11446084)
(206.77117 4.4054844e-10 -0.10919541)
(217.20503 4.3190941e-10 -0.10328794)
(227.33317 4.2408558e-10 -0.096707905)
(237.07632 4.1501227e-10 -0.089401635)
(246.36221 4.0520141e-10 -0.081304275)
(255.12678 3.3589044e-10 -0.072347378)
(263.31506 3.82874e-10 -0.062476453)
(270.88206 4.2551698e-10 -0.051665801)
(277.79334 4.1134094e-10 -0.039934753)
(284.02616 3.991641e-10 -0.02750015)
(289.5802 3.6943629e-10 -0.014980095)
(294.43881 3.5999533e-10 -0.0024239086)
(23.451677 2.525899e-10 -0.0042175197)
(23.583775 2.2043813e-10 -0.0089259493)
(23.818005 -2.7430828e-10 -0.01369828)
(24.153333 -2.4212351e-10 -0.01916201)
(24.604201 1.9477891e-10 -0.025269064)
(25.186823 1.7991338e-10 -0.032078331)
(25.916349 1.4733738e-10 -0.039639447)
(26.808527 1.3319458e-10 -0.04799547)
(27.880655 -2.135346e-10 -0.057186455)
(29.151513 -2.0387835e-10 -0.067251872)
(30.641178 -2.0356214e-10 -0.078236788)
(32.371071 -4.9436249e-10 -0.090195395)
(34.36407 -4.6511585e-10 -0.1031904)
(36.644664 -1.5267647e-10 -0.11729473)
(39.238893 -3.9197738e-10 -0.13258154)
(42.174306 -9.9801146e-11 -0.14912259)
(45.479667 -8.0292038e-11 -0.16697803)
(49.184557 -1.912689e-10 -0.18619035)
(53.318767 -6.5654358e-11 -0.20676391)
(57.911386 4.5391012e-11 -0.22849782)
(62.989871 4.5663983e-11 -0.25187746)
(68.578791 1.5436535e-10 -0.27665129)
(74.698355 5.8261295e-11 -0.30269813)
(81.362931 -2.4548524e-11 -0.32988859)
(88.579356 -1.4054625e-11 -0.35765221)
(96.345556 8.3482037e-11 -0.38548771)
(104.64916 8.9899453e-11 -0.41288388)
(113.46625 1.7819757e-10 -0.43925645)
(122.76231 1.797954e-10 -0.46399964)
(132.48925 1.8372768e-10 -0.48624288)
(142.58832 1.8803408e-10 -0.5051352)
(152.99123 1.9174383e-10 -0.51986256)
(163.62036 1.9518055e-10 -0.52954645)
(174.39007 1.9792365e-10 -0.53334013)
(185.21318 2.0102355e-10 -0.53069625)
(195.99634 2.0403527e-10 -0.52105724)
(206.64953 2.0578941e-10 -0.50427482)
(217.08291 2.2790499e-10 -0.48038302)
(227.2111 2.4765401e-10 -0.44973193)
(236.9547 2.4392537e-10 -0.41297258)
(246.24126 2.3954443e-10 -0.37102688)
(255.00659 2.1946976e-10 -0.32505499)
(263.19559 2.0139982e-10 -0.27640106)
(270.76312 1.9852979e-10 -0.22651097)
(277.6747 1.9497953e-10 -0.17690096)
(283.9076 1.9162562e-10 -0.12917747)
(289.46153 1.8858046e-10 -0.084978641)
(294.31963 1.8585724e-10 -0.044424172)
(23.450903 2.0018913e-12 -0.0062216724)
(23.583 -1.9453289e-10 -0.014979471)
(23.816785 1.9269039e-11 -0.024035657)
(24.151464 2.1287526e-11 -0.034207142)
(24.601493 2.4612889e-11 -0.045486321)
(25.183076 2.5304053e-11 -0.058029273)
(25.91136 2.3846308e-11 -0.071961056)
(26.802095 1.7410897e-10 -0.087372055)
(27.872576 1.5897197e-10 -0.1043278)
(29.141583 5.6660204e-12 -0.12288189)
(30.629189 -2.3915004e-12 -0.14308468)
(32.356807 1.2216644e-10 -0.16498876)
(34.347305 2.3851634e-10 -0.18864624)
(36.625154 2.3102482e-10 -0.21411092)
(39.216376 3.3912798e-10 -0.24142222)
(42.148495 3.2667466e-10 -0.27060484)
(45.450246 3.1724749e-10 -0.30165081)
(49.151176 1.9914681e-10 -0.33451275)
(53.281023 1.9037206e-10 -0.36910013)
(57.868893 1.8290408e-10 -0.40536716)
(62.942247 1.7941825e-10 -0.44279122)
(68.525599 1.77203e-10 -0.4810044)
(74.63915 1.3207902e-10 -0.51949804)
(81.29732 1.3164604e-10 -0.55767227)
(88.506995 1.3014443e-10 -0.595544)
(96.266153 1.3023758e-10 -0.63256942)
(104.56251 1.2950938e-10 -0.66799197)
(113.37227 1.3018241e-10 -0.70100642)
(122.66107 9.5994143e-11 -0.73093091)
(132.38098 1.3207184e-10 -0.75674581)
(142.47344 1.3397465e-10 -0.77755656)
(152.87033 1.3546843e-10 -0.7925924)
(163.4942 1.3661684e-10 -0.80091509)
(174.2595 1.3748613e-10 -0.80146321)
(185.07918 1.6174743e-10 -0.79370403)
(195.85988 1.7152915e-10 -0.77657234)
(206.51158 1.5942378e-10 -0.74979605)
(216.94435 1.5781568e-10 -0.71304292)
(227.07266 1.5663805e-10 -0.66645771)
(236.81695 1.382855e-10 -0.61065319)
(246.10455 1.2915363e-10 -0.5467035)
(254.87107 1.2820518e-10 -0.4761622)
(263.06117 1.2714605e-10 -0.40100074)
(270.62952 1.2599285e-10 -0.32347666)
(277.54148 1.1910839e-10 -0.24594348)
(283.77432 1.1803544e-10 -0.17086594)
(289.32784 1.1675346e-10 -0.10104207)
(294.18503 1.1557999e-10 -0.03708245)
(23.449479 -3.3515488e-12 -0.010686332)
(23.581617 8.7847355e-11 -0.024242361)
(23.814949 7.58977e-11 -0.038255934)
(24.148941 5.632844e-11 -0.053952578)
(24.598084 3.1364288e-11 -0.071371069)
(25.178578 1.0389839e-11 -0.090716573)
(25.905572 -7.188627e-12 -0.11215492)
(26.794811 -1.4233194e-11 -0.13580631)
(27.863584 -2.0518702e-11 -0.16176339)
(29.130659 -2.6742458e-11 -0.19010947)
(30.616091 -1.0290041e-10 -0.22093192)
(32.341272 -3.4835238e-11 -0.25432993)
(34.329043 -3.2656467e-11 -0.2904117)
(36.603844 3.3008729e-11 -0.32929954)
(39.191662 3.017073e-11 -0.37110736)
(42.119982 3.1471413e-11 -0.41593935)
(45.417502 3.325549e-11 -0.46386457)
(49.113734 -1.6952111e-11 -0.51490105)
(53.238396 -6.9993784e-11 -0.56898921)
(57.820562 -6.3748161e-11 -0.62592829)
(62.887672 -8.5915775e-12 -0.68553767)
(68.464282 -3.1054222e-12 -0.74742323)
(74.570642 1.7279732e-12 -0.81095468)
(81.22115 8.1443584e-12 -0.87536714)
(88.42277 1.5948945e-11 -0.94013823)
(96.173667 4.3217206e-11 -1.0041622)
(104.46172 3.1292459e-11 -1.0660847)
(113.26333 5.5042155e-11 -1.1244266)
(122.54432 7.9000193e-11 -1.1777725)
(132.25693 8.426313e-11 -1.2242708)
(142.34279 8.999467e-11 -1.2621587)
(152.73398 9.4951209e-11 -1.2898418)
(163.35316 9.923003e-11 -1.3056374)
(174.11491 1.0228635e-10 -1.3078546)
(184.93223 1.0421842e-10 -1.2955046)
(195.71175 1.0515745e-10 -1.2673031)
(206.36338 1.0567942e-10 -1.222956)
(216.79707 1.0583476e-10 -1.1623651)
(226.92712 1.1525163e-10 -1.0861255)
(236.6737 1.0888572e-10 -0.99551019)
(245.9639 1.035896e-10 -0.89244652)
(254.73304 1.027407e-10 -0.77951376)
(262.92549 1.0203315e-10 -0.65985569)
(270.49563 1.0110383e-10 -0.53700805)
(277.40864 9.6729354e-11 -0.41467974)
(283.64166 9.3235323e-11 -0.29671269)
(289.19469 9.2652295e-11 -0.18715449)
(294.05012 9.1929559e-11 -0.08743918)
(23.447174 -5.6685551e-11 -0.01554162)
(23.579355 -1.0589335e-10 -0.034973706)
(23.812168 -8.5683219e-11 -0.055279296)
(24.145356 -1.6400235e-10 -0.078021585)
(24.593486 -2.3942797e-10 -0.10326043)
(25.172755 -2.1775552e-10 -0.13126039)
(25.89831 -1.9925942e-10 -0.16225107)
(26.785889 -9.7094643e-11 -0.19640214)
(27.852772 -9.433326e-11 -0.2338404)
(29.117711 -9.2109949e-11 -0.27467386)
(30.600741 -9.0591896e-11 -0.3190101)
(32.323228 -8.9294924e-11 -0.36696754)
(34.307982 -1.3294474e-11 -0.41867092)
(36.57941 -1.1727091e-11 -0.47425674)
(39.163462 -1.1168013e-11 -0.53384126)
(42.087585 2.4546668e-11 -0.59751823)
(45.380438 2.7444249e-11 -0.66532361)
(49.071497 6.1702285e-11 -0.73721746)
(53.190446 3.2297052e-11 -0.81305967)
(57.766342 3.6115198e-11 -0.89259828)
(62.82663 6.8813432e-11 -0.9753961)
(68.395874 7.2367995e-11 -1.0608427)
(74.494354 7.5473185e-11 -1.1481722)
(81.136571 1.0546395e-10 -1.236412)
(88.329611 1.3281725e-10 -1.3241718)
(96.071759 1.3588067e-10 -1.4099457)
(104.35105 1.3813603e-10 -1.492061)
(113.14406 1.1650116e-10 -1.5686809)
(122.41685 1.1843336e-10 -1.6380938)
(132.1219 1.1054601e-10 -1.6978995)
(142.20105 1.2265216e-10 -1.7458247)
(152.58662 1.2181252e-10 -1.7798438)
(163.20145 1.2087953e-10 -1.7977522)
(173.96024 1.1070302e-10 -1.7972608)
(184.77608 1.0114017e-10 -1.7771125)
(195.55557 9.3000879e-11 -1.7355353)
(206.20855 9.1532206e-11 -1.6721473)
(216.64479 9.0053799e-11 -1.5868046)
(226.77833 8.8498751e-11 -1.4802796)
(236.52904 8.6592231e-11 -1.3542714)
(245.82366 8.473166e-11 -1.2113773)
(254.59709 8.2956014e-11 -1.0551024)
(262.79333 8.5369893e-11 -0.88974867)
(270.36636 8.3351942e-11 -0.72019115)
(277.28102 8.1677512e-11 -0.55148733)
(283.5143 8.2468734e-11 -0.38881777)
(289.06636 8.1271555e-11 -0.23778959)
(293.9191 8.0218468e-11 -0.1010904)
(23.443349 -1.2153743e-13 -0.021713056)
(23.575538 6.3625712e-11 -0.048641438)
(23.807741 1.2226379e-10 -0.076941806)
(24.13998 1.6594745e-10 -0.10843165)
(24.586934 9.3159513e-11 -0.14326422)
(25.164807 3.2477724e-11 -0.18180169)
(25.888741 2.8412782e-11 -0.22434585)
(26.774473 2.2571925e-11 -0.27111339)
(27.839264 -3.4236467e-11 -0.32226228)
(29.101844 -3.6054378e-11 -0.37792749)
(30.582213 -3.7838061e-11 -0.43824808)
(32.301698 -3.9517366e-11 -0.50338245)
(34.283065 2.6077732e-12 -0.57350235)
(36.550674 -6.3204744e-13 -0.64879991)
(39.130425 -1.9255344e-12 -0.72944513)
(42.049719 3.7981335e-11 -0.81558211)
(45.33717 3.7942923e-11 -0.90728124)
(49.02222 3.7768865e-11 -1.0045123)
(53.13453 3.7646893e-11 -1.1071051)
(57.703149 7.0841409e-11 -1.2147015)
(62.755537 7.0621247e-11 -1.3267497)
(68.3163 8.7458072e-11 -1.4424477)
(74.4058 8.6086395e-11 -1.5606984)
(81.038643 8.4585698e-11 -1.6800915)
(88.222054 8.3228867e-11 -1.7989237)
(95.954505 9.6589129e-11 -1.9152104)
(104.22425 9.4429078e-11 -2.0266006)
(113.00814 9.1609644e-11 -2.1304693)
(122.27252 8.8688771e-11 -2.2243265)
(131.9701 8.5745056e-11 -2.304868)
(142.043 8.2803422e-11 -2.3689611)
(152.42378 7.4711312e-11 -2.413829)
(163.03546 7.2164205e-11 -2.4365571)
(173.79283 6.9314257e-11 -2.4341889)
(184.60908 6.1823957e-11 -2.4051021)
(195.39071 6.4098532e-11 -2.3471324)
(206.04747 6.2455666e-11 -2.2598637)
(216.48887 6.150964e-11 -2.1432651)
(226.62862 6.1110361e-11 -1.998482)
(236.3862 5.7362768e-11 -1.8278715)
(245.68786 5.751003e-11 -1.6349681)
(254.46799 5.7835012e-11 -1.424494)
(262.67003 5.5264548e-11 -1.2022188)
(270.24743 5.6076803e-11 -0.97468112)
(277.16457 5.9617218e-11 -0.7486764)
(283.39814 6.2616896e-11 -0.53114989)
(288.94852 6.3044395e-11 -0.32943921)
(293.79692 6.3339515e-11 -0.14773706)
(23.437116 -8.2879965e-14 -0.029531741)
(23.569263 -7.1796485e-14 -0.065553864)
(23.800718 3.7184119e-11 -0.10364673)
(24.131776 -3.3321662e-11 -0.14585604)
(24.577274 -3.2134082e-11 -0.19245495)
(25.153442 -2.389675e-12 -0.24392701)
(25.875428 -6.8268362e-12 -0.30065187)
(26.758962 -4.1355032e-11 -0.36289742)
(27.821288 -7.3067986e-11 -0.43085529)
(29.081103 -4.3195269e-11 -0.50468658)
(30.558366 -4.4539087e-11 -0.58455653)
(32.274354 -4.4310711e-11 -0.67065404)
(34.251781 -4.3956202e-11 -0.76318339)
(36.514952 -4.3561753e-11 -0.86237229)
(39.089715 -1.7828162e-11 -0.96841612)
(42.003421 7.1508695e-12 -1.0814712)
(45.284644 8.3616144e-12 -1.2015933)
(48.962795 9.9983777e-12 -1.3287026)
(53.067521 1.264886e-11 -1.4625353)
(57.627879 -8.2240984e-12 -1.6025927)
(62.671365 1.6719787e-11 -1.74811)
(68.222653 -2.6560141e-12 -1.8979929)
(74.302208 1.6365154e-13 -2.0507853)
(80.924786 3.0391259e-12 -2.2046453)
(88.097803 5.7951793e-12 -2.3573068)
(95.819964 -2.362924e-12 -2.5061279)
(104.07979 1.8135723e-12 -2.6480404)
(112.85442 -3.7593547e-12 -2.7796693)
(122.11054 5.0883757e-13 -2.8978542)
(131.80113 4.8692003e-12 -2.99842)
(141.86861 9.3504264e-12 -3.0774149)
(152.24584 1.4368792e-11 -3.1313653)
(162.85601 1.9823895e-11 -3.1566384)
(173.61404 1.8411643e-11 -3.1495308)
(184.43319 2.0759643e-11 -3.108063)
(195.21983 2.3098719e-11 -3.0295457)
(205.88356 3.5186969e-11 -2.913521)
(216.33356 4.3286695e-11 -2.7600282)
(226.4831 5.0275869e-11 -2.5705954)
(236.25111 5.1823451e-11 -2.3483029)
(245.56322 5.5308563e-11 -2.0977375)
(254.3531 5.8373172e-11 -1.8250075)
(262.56347 6.0894005e-11 -1.5375649)
(270.14704 6.2927278e-11 -1.24386)
(277.06753 6.6206086e-11 -0.95263334)
(283.30124 6.707478e-11 -0.6727685)
(288.84869 6.7694424e-11 -0.41363689)
(293.69043 6.6561986e-11 -0.18124637)
(23.427157 -1.5092737e-12 -0.039371875)
(23.559127 -1.2017362e-12 -0.086447512)
(23.789593 -7.3733141e-13 -0.13657965)
(24.119106 2.1008543e-11 -0.19194453)
(24.562721 -2.1045571e-11 -0.25292272)
(25.136724 -5.9907138e-11 -0.32013579)
(25.85628 -5.5684384e-11 -0.39404129)
(26.737116 -5.2116045e-11 -0.47495313)
(27.796455 -4.9062525e-11 -0.56309)
(29.052951 -4.6395142e-11 -0.65863349)
(30.52651 -4.3976092e-11 -0.76177387)
(32.238343 -2.4716127e-11 -0.87273522)
(34.211096 -2.1698877e-11 -0.99176444)
(36.469011 -1.8919493e-11 -1.1191405)
(39.037872 -1.4862709e-11 -1.2551028)
(41.944979 4.5191912e-12 -1.3998417)
(45.218867 2.326726e-11 -1.5534187)
(48.888927 2.6250144e-11 -1.7157211)
(52.984808 4.4384851e-11 -1.8863986)
(57.5356 4.7117009e-11 -2.0647945)
(62.568868 4.977135e-11 -2.2499095)
(68.109396 3.7969586e-11 -2.440323)
(74.177806 4.0258731e-11 -2.6341453)
(80.789055 4.2774432e-11 -2.8289838)
(87.950811 4.5306878e-11 -3.0219167)
(95.662074 4.117255e-11 -3.209555)
(103.9117 5.581571e-11 -3.3879763)
(112.67718 5.8258256e-11 -3.5528673)
(121.92559 6.0771501e-11 -3.7001789)
(131.61025 6.3208351e-11 -3.8246356)
(141.67389 6.5568494e-11 -3.9212566)
(152.04969 7.3426794e-11 -3.985689)
(162.66104 8.0480974e-11 -4.0134438)
(173.42294 8.2038704e-11 -3.9999875)
(184.24869 8.3399537e-11 -3.9429525)
(195.04448 8.4416576e-11 -3.8391487)
(205.71966 8.8788098e-11 -3.6881458)
(216.18296 8.899121e-11 -3.4901691)
(226.34709 8.7131941e-11 -3.2472871)
(236.13027 8.6567269e-11 -2.9634972)
(245.45727 8.5603174e-11 -2.6446702)
(254.26085 8.5732189e-11 -2.2985681)
(262.48272 8.3964583e-11 -1.9346257)
(270.07462 8.2024339e-11 -1.5635334)
(276.99941 7.9915926e-11 -1.1963434)
(283.23279 7.7830724e-11 -0.84427351)
(288.7754 7.5871341e-11 -0.51900897)
(293.60711 7.2789417e-11 -0.22860431)
(23.411542 -2.8836915e-11 -0.051429671)
(23.543083 3.0493869e-12 -0.11190566)
(23.772184 4.4648155e-12 -0.17667473)
(24.099624 5.7274935e-12 -0.24799157)
(24.540724 5.342171e-12 -0.32634439)
(25.111874 3.8464353e-12 -0.41253269)
(25.828274 2.7661754e-12 -0.507107)
(26.705655 2.0420352e-12 -0.61042787)
(27.761218 1.5829087e-12 -0.72273757)
(29.013567 1.3337514e-12 -0.84423406)
(30.482537 2.2913778e-12 -0.97512871)
(32.189263 3.2107459e-12 -1.1156775)
(34.15631 2.6259254e-11 -1.2661662)
(36.407846 2.7454276e-11 -1.4269206)
(38.969591 5.0173561e-11 -1.5982158)
(41.868799 5.0840516e-11 -1.7802621)
(45.133974 5.1740334e-11 -1.9731054)
(48.794506 5.2803965e-11 -2.1765691)
(52.880076 5.4715064e-11 -2.3901748)
(57.419842 5.6627696e-11 -2.6130571)
(62.441482 5.8531368e-11 -2.8439192)
(67.969943 5.076e-11 -3.0809339)
(74.026061 5.3274295e-11 -3.321688)
(80.625065 5.5803648e-11 -3.5631432)
(87.774941 5.8554064e-11 -3.8016075)
(95.475059 6.1176557e-11 -4.0328109)
(103.71467 6.3632656e-11 -4.2518333)
(112.4717 6.5908752e-11 -4.4532908)
(121.71368 6.7947764e-11 -4.6321484)
(131.39427 7.0038962e-11 -4.7819136)
(141.45658 7.1792392e-11 -4.8964859)
(151.83411 7.6807763e-11 -4.9705706)
(162.45045 7.7686139e-11 -4.9987563)
(173.22064 8.1344434e-11 -4.9756123)
(184.05799 8.0843732e-11 -4.8983872)
(194.86841 7.9919077e-11 -4.7633522)
(205.56093 7.8437789e-11 -4.5701579)
(216.04366 7.8878427e-11 -4.319277)
(226.22855 7.6283675e-11 -4.0134321)
(236.0329 7.3280642e-11 -3.6577034)
(245.38038 6.9973091e-11 -3.2594601)
(254.20251 6.6452391e-11 -2.8283851)
(262.43974 6.2810807e-11 -2.3762116)
(270.04248 5.9996536e-11 -1.9162236)
(276.97243 5.6185813e-11 -1.462141)
(283.20453 5.2763731e-11 -1.0278691)
(288.73949 5.0506286e-11 -0.62776339)
(293.5565 4.6904031e-11 -0.2721866)
(23.387509 1.9318754e-11 -0.066097111)
(23.518228 1.8949084e-11 -0.14263721)
(23.745401 1.9389905e-11 -0.22495921)
(24.070005 1.9732418e-11 -0.3153973)
(24.507677 2.2520588e-12 -0.41453876)
(25.074975 -1.297449e-11 -0.52338663)
(25.787172 -1.0289411e-11 -0.64258666)
(26.660023 -7.2519016e-12 -0.77253096)
(27.710703 -4.604037e-12 -0.91346727)
(28.957757 -2.2899985e-12 -1.0655946)
(30.420936 1.4686068e-11 -1.2291353)
(32.121279 1.4744754e-11 -1.4043729)
(34.081257 1.5386473e-11 -1.5916331)
(36.324953 3.0443017e-11 -1.7912932)
(38.878023 3.0811766e-11 -2.0036695)
(41.767676 3.2173383e-11 -2.2289979)
(45.02241 3.3372396e-11 -2.467309)
(48.67164 3.4475031e-11 -2.7183555)
(52.745115 4.8873607e-11 -2.9815141)
(57.272112 4.9305472e-11 -3.2556797)
(62.280485 4.9757066e-11 -3.5392095)
(67.795412 5.675432e-11 -3.8298031)
(73.838029 5.7135847e-11 -4.1244356)
(80.42392 5.7376094e-11 -4.4193084)
(87.561481 6.3876342e-11 -4.7098237)
(95.250542 6.4024054e-11 -4.9906768)
(103.48084 6.4007406e-11 -5.2557812)
(112.23081 6.3783664e-11 -5.4985022)
(121.46847 6.319788e-11 -5.7126432)
(131.1479 6.7586269e-11 -5.8903019)
(141.21262 6.6053421e-11 -6.0240898)
(151.59642 6.6613843e-11 -6.1076297)
(162.22308 6.3900281e-11 -6.1344743)
(173.00762 6.0703084e-11 -6.0982212)
(183.86331 5.7232321e-11 -5.9957268)
(194.69562 5.3477348e-11 -5.8227349)
(205.41312 4.9469127e-11 -5.5790602)
(215.92313 4.5067259e-11 -5.2655442)
(226.13662 4.0640111e-11 -4.8857384)
(235.96966 3.6262414e-11 -4.4460283)
(245.3445 3.2008544e-11 -3.9555548)
(254.1911 2.7934619e-11 -3.4262464)
(262.44821 2.4175764e-11 -2.8725113)
(270.06457 1.9919372e-11 -2.3106462)
(277.00036 1.617312e-11 -1.7574973)
(283.22949 1.3550903e-11 -1.2301429)
(288.75272 1.1286834e-11 -0.74599477)
(293.54869 9.3113155e-12 -0.31797879)
(23.351327 3.6075841e-13 -0.083604395)
(23.480654 1.2728e-11 -0.17910193)
(23.705085 2.3432212e-11 -0.28212879)
(24.025778 2.1981428e-11 -0.39514008)
(24.458742 9.4773201e-12 -0.51880807)
(25.020787 2.0522266e-11 -0.65435368)
(25.727323 3.0586973e-11 -0.8025182)
(26.594147 3.9021947e-11 -0.96370726)
(27.638419 3.6069724e-11 -1.1381522)
(28.87861 3.3593816e-11 -1.3260362)
(30.334369 2.1546894e-11 -1.5275823)
(32.02662 9.5373813e-12 -1.7430978)
(33.977726 1.8440869e-11 -1.9729477)
(36.211679 1.7028496e-11 -2.2175635)
(38.754073 1.5528566e-11 -2.477304)
(41.632093 3.4432632e-11 -2.7524282)
(44.874253 3.2425629e-11 -3.0429419)
(48.510038 3.0392678e-11 -3.3485083)
(52.569323 1.9344414e-11 -3.6683267)
(57.081572 1.8296868e-11 -4.0010047)
(62.074894 1.7311486e-11 -4.3444888)
(67.574793 1.6343826e-11 -4.695922)
(73.602802 1.5374478e-11 -5.0515631)
(80.174966 1.4386241e-11 -5.4067283)
(87.300198 1.7795007e-11 -5.7557709)
(94.978895 1.667007e-11 -6.0921887)
(103.20137 1.5394013e-11 -6.4085474)
(111.94664 1.4137797e-11 -6.6967733)
(121.1833 1.2725658e-11 -6.9493354)
(130.86585 1.1164952e-11 -7.1567383)
(140.93822 9.4506997e-12 -7.3101541)
(151.33452 7.5750633e-12 -7.4020058)
(161.97863 5.3954883e-12 -7.4247161)
(172.7855 1.8006399e-12 -7.37085)
(183.66821 1.2746226e-12 -7.2368852)
(194.53166 -8.6217962e-13 -7.0180506)
(205.28377 -3.0041581e-12 -6.7144223)
(215.83083 -7.8764516e-12 -6.3273382)
(226.08253 -9.6399242e-12 -5.8613624)
(235.95338 -1.1281871e-11 -5.3244243)
(245.36385 -1.2718005e-11 -4.7277298)
(254.24185 -1.3940266e-11 -4.0858108)
(262.52398 -1.3944915e-11 -3.4161726)
(270.15684 -1.5857851e-11 -2.7386051)
(277.09868 -1.5979362e-11 -2.0736052)
(283.32213 -1.6483735e-11 -1.4419713)
(288.82795 -1.6849377e-11 -0.86462267)
(293.59447 -1.7538034e-11 -0.35733404)
(23.298244 8.4163744e-12 -0.10410707)
(23.425399 -6.4931428e-13 -0.22154981)
(23.645949 -6.5505549e-13 -0.34851652)
(23.961258 -5.6860497e-13 -0.48767276)
(24.387769 -5.1432997e-13 -0.63978089)
(24.942663 -4.4522236e-13 -0.80628089)
(25.641567 -1.7572883e-12 -0.98799769)
(26.500367 -1.7614005e-11 -1.1853172)
(27.536209 -1.7420327e-11 -1.3984156)
(28.767482 -1.7917296e-11 -1.6274305)
(30.21371 -1.0953961e-11 -1.8725683)
(31.895679 -4.9421501e-12 -2.1341521)
(33.835628 -1.3287231e-11 -2.4125871)
(36.057457 -2.1023507e-11 -2.7083649)
(38.586702 -2.1746712e-11 -3.0218939)
(41.450551 -2.2690773e-11 -3.3534619)
(44.677575 -2.365612e-11 -3.7030499)
(48.297385 -3.1556216e-11 -4.0702224)
(52.340055 -2.5602826e-11 -4.4539794)
(56.835324 -1.9866511e-11 -4.8526039)
(61.811661 -2.0645322e-11 -5.2635756)
(67.295007 -2.1497542e-11 -5.6834018)
(73.307417 -2.2395402e-11 -6.1075194)
(79.86553 -2.3321465e-11 -6.5302201)
(86.978902 -2.4250664e-11 -6.9446525)
(94.648619 -2.5158543e-11 -7.3429436)
(102.86569 -2.6027683e-11 -7.7161174)
(111.60977 -2.3705749e-11 -8.0544554)
(120.85012 -2.4502958e-11 -8.3488911)
(130.54165 -2.5226393e-11 -8.5881205)
(140.62873 -2.5812324e-11 -8.7616926)
(151.04572 -2.6250504e-11 -8.8606773)
(161.71653 -2.915176e-11 -8.8762489)
(172.55588 -2.6540444e-11 -8.7998742)
(183.47655 -2.644707e-11 -8.6276609)
(194.38265 -2.6315328e-11 -8.3543507)
(205.18119 -2.7159181e-11 -7.9803909)
(215.77716 -2.7712446e-11 -7.5077714)
(226.07859 -2.7094639e-11 -6.9422842)
(235.99808 -2.7334589e-11 -6.2936754)
(245.4538 -2.6397257e-11 -5.5755524)
(254.3711 -2.5393626e-11 -4.8054595)
(262.68389 -2.435599e-11 -4.0044907)
(270.33604 -2.3306159e-11 -3.1965003)
(277.28339 -2.299038e-11 -2.4062816)
(283.497 -2.2087279e-11 -1.6590424)
(288.97769 -2.0978371e-11 -0.97972549)
(293.70387 -2.0261691e-11 -0.38725937)
(23.222661 -1.2084253e-11 -0.12730665)
(23.346635 5.0641411e-13 -0.26954297)
(23.561785 3.3521638e-13 -0.42353458)
(23.869754 3.1278526e-13 -0.59228997)
(24.287518 3.3627264e-13 -0.77669538)
(24.832779 8.9024476e-13 -0.97839703)
(25.521499 -2.0742529e-11 -1.1982718)
(26.369709 -8.8494405e-12 -1.4366314)
(27.394552 -8.6130491e-12 -1.6935416)
(28.614318 -1.9441609e-11 -1.969055)
(30.048376 -1.9851876e-11 -2.2633413)
(31.717349 -3.0940152e-11 -2.5767353)
(33.643336 -1.9896976e-11 -2.9096872)
(35.850139 -1.9939647e-11 -3.2627615)
(38.363258 -1.9965756e-11 -3.6364305)
(41.209913 -2.516997e-11 -4.0310227)
(44.41879 -2.5311945e-11 -4.4464999)
(48.0197 -2.5516989e-11 -4.8823233)
(52.043009 -2.5761638e-11 -5.3372756)
(56.518845 -2.606153e-11 -5.8092783)
(61.47616 -2.1280548e-11 -6.2952861)
(66.941476 -2.1637119e-11 -6.7910986)
(72.937521 -2.2023501e-11 -7.2912474)
(79.481675 -2.2397972e-11 -7.7888763)
(86.584284 -2.2642204e-11 -8.2757619)
(94.247263 -2.2735146e-11 -8.7424429)
(102.46242 -2.2709008e-11 -9.178165)
(111.21019 -2.2647724e-11 -9.5713289)
(120.46048 -2.2450139e-11 -9.911115)
(130.16868 -2.2115999e-11 -10.184189)
(140.2795 -2.1564033e-11 -10.378288)
(150.72753 -2.0856944e-11 -10.482957)
(161.43657 -2.0089114e-11 -10.487993)
(172.32091 -1.7296156e-11 -10.383701)
(183.29285 -1.8424683e-11 -10.165829)
(194.25544 -1.8379167e-11 -9.8286684)
(205.1145 -1.7553838e-11 -9.3731597)
(215.77333 -1.6656564e-11 -8.8021252)
(226.13794 -1.655784e-11 -8.1228256)
(236.11849 -1.5573584e-11 -7.3471114)
(245.63034 -1.3945444e-11 -6.4913534)
(254.59567 -1.314921e-11 -5.5765706)
(262.945 -1.240977e-11 -4.6280179)
(270.61882 -1.1686182e-11 -3.6742944)
(277.57001 -1.1050034e-11 -2.7452768)
(283.76779 -1.0524191e-11 -1.8714189)
(289.21312 -1.0688982e-11 -1.0822836)
(293.88521 -1.0261743e-11 -0.40026425)
(23.118755 -2.2729027e-13 -0.15287386)
(23.238294 -5.3940911e-13 -0.32218792)
(23.446095 -5.2117359e-13 -0.5057381)
(23.744218 -9.5355616e-14 -0.70703881)
(24.150322 6.060481e-13 -0.92717939)
(24.682835 9.4689771e-12 -1.1679819)
(25.358202 9.5601235e-12 -1.43031)
(26.19268 1.0665247e-12 -1.7143123)
(27.203417 1.0544655e-12 -2.0198623)
(28.408572 -7.1027667e-12 -2.3468743)
(29.827321 -1.4920584e-11 -2.6954577)
(31.480094 -1.419137e-11 -3.0659566)
(33.388828 -5.4170639e-12 -3.4588788)
(35.577229 -4.9174243e-12 -3.8748834)
(38.07078 -4.5530687e-12 -4.3145312)
(40.896781 -4.2521177e-12 -4.7782159)
(44.084099 -3.9999777e-12 -5.2658987)
(47.662836 -3.7859843e-12 -5.7769458)
(51.663764 -3.6017858e-12 -6.3099167)
(56.117532 -3.5270754e-12 -6.8623558)
(61.053722 -3.4681866e-12 -7.43065)
(66.499588 -3.4231798e-12 -8.0097935)
(72.478716 -3.3873426e-12 -8.5932473)
(79.009415 -3.4287273e-12 -9.1728633)
(86.102994 4.5649596e-13 -9.738978)
(93.762353 4.1766266e-12 -10.280422)
(101.98024 6.0760954e-12 -10.78445)
(110.73791 4.2309581e-12 -11.237306)
(120.00601 4.1545485e-12 -11.626131)
(129.74033 4.1132866e-12 -11.935272)
(139.88595 5.818344e-12 -12.150442)
(150.37754 5.572683e-12 -12.259479)
(161.1386 3.6663522e-12 -12.250665)
(172.08278 1.6774873e-12 -12.113075)
(183.12162 1.1971294e-12 -11.842106)
(194.15681 -8.4390712e-13 -11.431613)
(205.09263 -1.3626118e-12 -10.883156)
(215.83025 -1.8663566e-12 -10.200579)
(226.2732 -2.3802434e-12 -9.3928284)
(236.32868 -2.8332695e-12 -8.4741536)
(245.9086 -3.2437168e-12 -7.4640858)
(254.93125 -3.6337041e-12 -6.3876403)
(263.32297 -3.9478277e-12 -5.2748983)
(271.0201 -3.6238385e-12 -4.1600218)
(277.97193 -3.8533204e-12 -3.0789397)
(284.14557 -3.9715444e-12 -2.0683836)
(289.54238 -4.0138615e-12 -1.1632269)
(294.1435 -4.0050828e-12 -0.38960605)
(22.981607 -6.8006541e-12 -0.1796391)
(23.095189 -6.7088361e-12 -0.37736487)
(23.293227 -1.7983997e-13 -0.59207823)
(23.578406 5.696728e-12 -0.82799279)
(23.969294 1.0821128e-11 -1.0865339)
(24.48532 9.3968215e-12 -1.3696476)
(25.1436 8.2591722e-12 -1.6780665)
(25.960709 6.3379617e-13 -2.0116394)
(26.953797 1.5166679e-13 -2.3699332)
(28.140838 -4.8079018e-13 -2.7526587)
(29.540761 5.3859834e-12 -3.1598425)
(31.173755 1.1322449e-11 -3.5918442)
(33.061578 1.0875102e-11 -4.0492545)
(35.227836 1.0511404e-11 -4.5328633)
(37.698022 1.0042139e-11 -5.0433623)
(40.499568 9.6465078e-12 -5.5812508)
(43.661603 9.3225258e-12 -6.1465229)
(47.214627 9.0604309e-12 -6.738477)
(51.189941 8.8504416e-12 -7.3554643)
(55.618869 5.6975904e-12 -7.9946178)
(60.531808 5.42409e-12 -8.6517382)
(65.956946 5.1790279e-12 -9.3210882)
(71.918886 4.9452285e-12 -9.995183)
(78.437022 1.5875794e-12 -10.664276)
(85.523808 1.2712943e-12 -11.316864)
(93.183352 9.1871595e-13 -11.93979)
(101.40951 4.6482787e-13 -12.518177)
(110.18446 -1.4855017e-12 -13.035999)
(119.47961 -6.5814776e-13 -13.478231)
(129.25112 -1.2180346e-12 -13.826587)
(139.44433 -3.4435322e-12 -14.064382)
(149.99387 -4.0480782e-12 -14.177351)
(160.82272 -4.7840703e-12 -14.152019)
(171.84359 -5.5710112e-12 -13.976176)
(182.96697 -6.3570781e-12 -13.644869)
(194.0928 -8.307943e-12 -13.15159)
(205.1234 -8.8037047e-12 -12.498708)
(215.95737 -8.5317808e-12 -11.691261)
(226.49522 -8.7149165e-12 -10.740112)
(236.64061 -8.1677696e-12 -9.6622456)
(246.30127 -7.9660526e-12 -8.4807993)
(255.39078 -8.0586752e-12 -7.2253653)
(263.83037 -7.4512526e-12 -5.931616)
(271.55135 -6.6675171e-12 -4.6402561)
(278.49867 -6.1985457e-12 -3.394471)
(284.63718 -5.3792886e-12 -2.238546)
(289.96907 -4.6371059e-12 -1.2134293)
(294.47914 -3.9532201e-12 -0.34914438)
(22.808638 1.3051957e-13 -0.2062731)
(22.914496 -4.9629267e-12 -0.43228897)
(23.099903 -4.4351642e-12 -0.67835888)
(23.368462 -9.0775745e-12 -0.94963248)
(23.739973 -1.3605808e-11 -1.2480708)
(24.235241 -1.8109065e-11 -1.5756603)
(24.872288 -1.7485263e-11 -1.9327871)
(25.668095 -2.1988889e-11 -2.3187971)
(26.639778 -1.6255277e-11 -2.732801)
(27.805038 -1.6132646e-11 -3.1742325)
(29.18247 -1.0793959e-11 -3.6430215)
(30.791965 -1.0531158e-11 -4.1395629)
(32.655071 -1.0160588e-11 -4.664573)
(34.795293 -9.8282499e-12 -5.2190276)
(37.238161 -1.4711146e-11 -5.8038072)
(40.011301 -1.4591687e-11 -6.4195749)
(43.144184 -1.4453597e-11 -7.0664194)
(46.667824 -1.4358382e-11 -7.7436046)
(50.614206 -1.432556e-11 -8.4492979)
(55.015466 -1.4363549e-11 -9.1803518)
(59.902938 -1.4435429e-11 -9.9318612)
(65.305887 -1.7161747e-11 -10.69696)
(71.250375 -1.7451407e-11 -11.46676)
(77.757157 -2.0398487e-11 -12.2307)
(84.83991 -2.0894097e-11 -12.975852)
(92.504039 -2.1365215e-11 -13.686686)
(100.74462 -2.4318694e-11 -14.345549)
(109.5449 -2.2164857e-11 -14.933505)
(118.87715 -2.2372498e-11 -15.43274)
(128.69793 -2.3629837e-11 -15.822555)
(138.95274 -2.3384167e-11 -16.08424)
(149.57599 -2.2834727e-11 -16.201204)
(160.48979 -2.1948393e-11 -16.15784)
(171.60558 -2.0731859e-11 -15.940381)
(182.83247 -1.9146675e-11 -15.54333)
(194.06821 -1.7337794e-11 -14.959749)
(205.21272 -1.4228422e-11 -14.192863)
(216.16156 -1.1950313e-11 -13.248959)
(226.81169 -9.559044e-12 -12.141029)
(237.06252 -7.0998409e-12 -10.889125)
(246.81685 -4.6293761e-12 -9.5204466)
(255.98258 -2.2263858e-12 -8.0697907)
(264.47481 8.8932231e-14 -6.5792981)
(272.21872 2.6624924e-12 -5.0974031)
(279.15414 4.5868544e-12 -3.6760368)
(285.24353 6.1152211e-12 -2.3685928)
(290.49077 6.9505119e-12 -1.2229478)
(294.88681 7.9635752e-12 -0.27289647)
(22.601254 4.567006e-12 -0.23084484)
(22.697376 4.6122207e-12 -0.48320455)
(22.866851 4.5848194e-12 -0.75908624)
(23.114577 4.5445567e-12 -1.0648688)
(23.462033 2.0047895e-13 -1.4033119)