/*--------------------------------*- C++ -*----------------------------------*\
| =========                 |                                                 |
| \\      /  F ield         | OpenFOAM: The Open Source CFD Toolbox           |
|  \\    /   O peration     | Version:  2212                                  |
|   \\  /    A nd           | Website:  www.openfoam.com                      |
|    \\/     M anipulation  |                                                 |
\*---------------------------------------------------------------------------*/
FoamFile
{
    version     2.0;
    format      ascii;
    arch        "LSB;label=32;scalar=64";
    class       volScalarField;
    location    "0";
    object      V;
}
// * * * * * * * * * * * * * * * * * * * * * * * * * * * * * * * * * * * * * //

dimensions      [0 3 0 0 0 0 0];

internalField   nonuniform List<scalar> 
18080
(
3.5279e-12
3.72724e-12
3.94332e-12
4.17128e-12
4.39154e-12
4.58591e-12
4.74774e-12
4.87197e-12
4.95497e-12
4.9947e-12
4.99072e-12
4.94413e-12
4.85739e-12
4.73418e-12
4.57914e-12
4.39755e-12
4.19512e-12
3.97762e-12
3.75076e-12
3.51986e-12
3.28977e-12
3.06471e-12
2.84817e-12
2.64288e-12
2.45085e-12
2.27343e-12
2.11134e-12
1.96477e-12
1.83371e-12
1.71759e-12
1.61534e-12
1.5261e-12
1.44886e-12
1.38229e-12
1.3253e-12
1.27668e-12
1.23522e-12
1.19994e-12
1.16972e-12
1.1436e-12
1.1207e-12
1.10023e-12
1.0815e-12
1.06389e-12
1.04641e-12
1.02739e-12
1.00594e-12
9.82296e-13
1.46431e-11
1.54299e-11
1.62784e-11
1.71681e-11
1.80186e-11
1.87569e-11
1.93575e-11
1.98018e-11
2.00772e-11
2.01775e-11
2.01027e-11
1.9859e-11
1.94577e-11
1.89148e-11
1.82497e-11
1.74839e-11
1.66407e-11
1.5743e-11
1.48135e-11
1.38729e-11
1.29401e-11
1.20313e-11
1.11598e-11
1.0336e-11
9.56711e-12
8.85808e-12
8.21129e-12
7.6271e-12
7.10514e-12
6.64276e-12
6.23566e-12
5.88016e-12
5.57219e-12
5.30635e-12
5.07833e-12
4.88332e-12
4.71657e-12
4.57416e-12
4.45177e-12
4.34562e-12
4.25234e-12
4.16886e-12
4.09251e-12
4.02088e-12
3.95026e-12
3.87427e-12
3.78955e-12
3.69702e-12
3.48716e-11
3.66415e-11
3.85385e-11
4.05129e-11
4.23765e-11
4.39606e-11
4.52107e-11
4.60886e-11
4.65704e-11
4.66468e-11
4.6323e-11
4.56173e-11
4.45596e-11
4.31892e-11
4.15528e-11
3.97012e-11
3.76876e-11
3.55648e-11
3.33834e-11
3.119e-11
2.90261e-11
2.69272e-11
2.49219e-11
2.3032e-11
2.12729e-11
1.96541e-11
1.818e-11
1.68502e-11
1.56632e-11
1.4612e-11
1.36865e-11
1.2878e-11
1.21769e-11
1.15708e-11
1.10498e-11
1.06031e-11
1.022e-11
9.89166e-12
9.60846e-12
9.36206e-12
9.14497e-12
8.95045e-12
8.77265e-12
8.60629e-12
8.4433e-12
8.27008e-12
8.07939e-12
7.87318e-12
7.01169e-11
7.34675e-11
7.70349e-11
8.07177e-11
8.41428e-11
8.69828e-11
8.91398e-11
9.05494e-11
9.11755e-11
9.10107e-11
9.00749e-11
8.84125e-11
8.60885e-11
8.31852e-11
7.97964e-11
7.6023e-11
7.19683e-11
6.77338e-11
6.34154e-11
5.91006e-11
5.48664e-11
5.07775e-11
4.68857e-11
4.32296e-11
3.98357e-11
3.67196e-11
3.3887e-11
3.13355e-11
2.90599e-11
2.70456e-11
2.52724e-11
2.37228e-11
2.23776e-11
2.12131e-11
2.02104e-11
1.93483e-11
1.86068e-11
1.79692e-11
1.74174e-11
1.69359e-11
1.65106e-11
1.61292e-11
1.57808e-11
1.54556e-11
1.51391e-11
1.48067e-11
1.44454e-11
1.40586e-11
1.29596e-10
1.3541e-10
1.41556e-10
1.47843e-10
1.53592e-10
1.58219e-10
1.61565e-10
1.63533e-10
1.64077e-10
1.63206e-10
1.60971e-10
1.57469e-10
1.52829e-10
1.47207e-10
1.40776e-10
1.33721e-10
1.26225e-10
1.18468e-10
1.10616e-10
1.02818e-10
9.52072e-11
8.78903e-11
8.09527e-11
7.44567e-11
6.84432e-11
6.29347e-11
5.79368e-11
5.34413e-11
4.94362e-11
4.58929e-11
4.27741e-11
4.00478e-11
3.76792e-11
3.5626e-11
3.38549e-11
3.23283e-11
3.1012e-11
2.98764e-11
2.88907e-11
2.80281e-11
2.72649e-11
2.65797e-11
2.59542e-11
2.53719e-11
2.48085e-11
2.42237e-11
2.35963e-11
2.29314e-11
2.27375e-10
2.36928e-10
2.46945e-10
2.5709e-10
2.66187e-10
2.73248e-10
2.78031e-10
2.80404e-10
2.80328e-10
2.77846e-10
2.73082e-10
2.66225e-10
2.57514e-10
2.47233e-10
2.35686e-10
2.23187e-10
2.1005e-10
1.96571e-10
1.83026e-10
1.69659e-10
1.56678e-10
1.44256e-10
1.32523e-10
1.21573e-10
1.11466e-10
1.02229e-10
9.38646e-11
8.63528e-11
7.96678e-11
7.3757e-11
6.85558e-11
6.40084e-11
6.00545e-11
5.66228e-11
5.36578e-11
5.10965e-11
4.88826e-11
4.69671e-11
4.52998e-11
4.38372e-11
4.25407e-11
4.13761e-11
4.03139e-11
3.93275e-11
3.83786e-11
3.7405e-11
3.63732e-11
3.52912e-11
3.84339e-10
3.99425e-10
4.15106e-10
4.30809e-10
4.44574e-10
4.5479e-10
4.61109e-10
4.63375e-10
4.6158e-10
4.55854e-10
4.46451e-10
4.33725e-10
4.18105e-10
4.00078e-10
3.80157e-10
3.58864e-10
3.36706e-10
3.1416e-10
2.91663e-10
2.69593e-10
2.48273e-10
2.2796e-10
2.0885e-10
1.91075e-10
1.74715e-10
1.598e-10
1.46321e-10
1.34236e-10
1.23493e-10
1.14001e-10
1.05651e-10
9.83504e-11
9.19983e-11
8.64794e-11
8.1704e-11
7.757e-11
7.39892e-11
7.0883e-11
6.81726e-11
6.57899e-11
6.36747e-11
6.17739e-11
6.00418e-11
5.84375e-11
5.69029e-11
5.53452e-11
5.37147e-11
5.20226e-11
6.30439e-10
6.53512e-10
6.77267e-10
7.0076e-10
7.20811e-10
7.34873e-10
7.42478e-10
7.43469e-10
7.37931e-10
7.26165e-10
7.0866e-10
6.86047e-10
6.59064e-10
6.28524e-10
5.95263e-10
5.60118e-10
5.2389e-10
4.8732e-10
4.51073e-10
4.15722e-10
3.81745e-10
3.49518e-10
3.19315e-10
2.91318e-10
2.65623e-10
2.42257e-10
2.21183e-10
2.0232e-10
1.85574e-10
1.70788e-10
1.57787e-10
1.46419e-10
1.36524e-10
1.27919e-10
1.20463e-10
1.13998e-10
1.08386e-10
1.03507e-10
9.92412e-11
9.54843e-11
9.21453e-11
8.91442e-11
8.64122e-11
8.38884e-11
8.14874e-11
7.90756e-11
7.65812e-11
7.4019e-11
1.00675e-09
1.04106e-09
1.07602e-09
1.11011e-09
1.1383e-09
1.15668e-09
1.16466e-09
1.16213e-09
1.14938e-09
1.12704e-09
1.09598e-09
1.0573e-09
1.01221e-09
9.62045e-10
9.08118e-10
8.51735e-10
7.94123e-10
7.36402e-10
6.79561e-10
6.24438e-10
5.7172e-10
5.21935e-10
4.75455e-10
4.32514e-10
3.93217e-10
3.57572e-10
3.25491e-10
2.96824e-10
2.71409e-10
2.48985e-10
2.2928e-10
2.12053e-10
1.97052e-10
1.83996e-10
1.72673e-10
1.62837e-10
1.54287e-10
1.46839e-10
1.40315e-10
1.34561e-10
1.29443e-10
1.24843e-10
1.20662e-10
1.16808e-10
1.13161e-10
1.09535e-10
1.05827e-10
1.02057e-10
1.56634e-09
1.61602e-09
1.66606e-09
1.71411e-09
1.75241e-09
1.77506e-09
1.78137e-09
1.77145e-09
1.74596e-09
1.70605e-09
1.65326e-09
1.5894e-09
1.51643e-09
1.43642e-09
1.35143e-09
1.26342e-09
1.17423e-09
1.0855e-09
9.98663e-10
9.14903e-10
8.35181e-10
7.60213e-10
6.90484e-10
6.26275e-10
5.67686e-10
5.14671e-10
4.6706e-10
4.24587e-10
3.86985e-10
3.53838e-10
3.24726e-10
2.99284e-10
2.77123e-10
2.57825e-10
2.41074e-10
2.26504e-10
2.13823e-10
2.02758e-10
1.93051e-10
1.84482e-10
1.76856e-10
1.70005e-10
1.63784e-10
1.58067e-10
1.52685e-10
1.47381e-10
1.4202e-10
1.36623e-10
2.37215e-09
2.44223e-09
2.51195e-09
2.57775e-09
2.62795e-09
2.6539e-09
2.65491e-09
2.63147e-09
2.58493e-09
2.51731e-09
2.43115e-09
2.32935e-09
2.21498e-09
2.0912e-09
1.96108e-09
1.82753e-09
1.69321e-09
1.56045e-09
1.43127e-09
1.30732e-09
1.18989e-09
1.0799e-09
9.77975e-10
8.84418e-10
7.99289e-10
7.22449e-10
6.53582e-10
5.92256e-10
5.38041e-10
4.90291e-10
4.48384e-10
4.11773e-10
3.79881e-10
3.52097e-10
3.27968e-10
3.06956e-10
2.88651e-10
2.72658e-10
2.58615e-10
2.46208e-10
2.35165e-10
2.2525e-10
2.16261e-10
2.08022e-10
2.00302e-10
1.92763e-10
1.85223e-10
1.77704e-10
3.4898e-09
3.586e-09
3.6805e-09
3.768e-09
3.83138e-09
3.85831e-09
3.84826e-09
3.80245e-09
3.72329e-09
3.61416e-09
3.47911e-09
3.3226e-09
3.14927e-09
2.9638e-09
2.77065e-09
2.57398e-09
2.37752e-09
2.18455e-09
1.9978e-09
1.81947e-09
1.65125e-09
1.49431e-09
1.34937e-09
1.21674e-09
1.09638e-09
9.88003e-10
8.91068e-10
8.04895e-10
7.28824e-10
6.61885e-10
6.03182e-10
5.51923e-10
5.07273e-10
4.68364e-10
4.34563e-10
4.05104e-10
3.79423e-10
3.56966e-10
3.37233e-10
3.19793e-10
3.04272e-10
2.90348e-10
2.77745e-10
2.66224e-10
2.55479e-10
2.45074e-10
2.34769e-10
2.24588e-10
4.9729e-09
5.1013e-09
5.22574e-09
5.33864e-09
5.4156e-09
5.43953e-09
5.41034e-09
5.33042e-09
5.20383e-09
5.03591e-09
4.83283e-09
4.60121e-09
4.34782e-09
4.07936e-09
3.80207e-09
3.52176e-09
3.24351e-09
2.97172e-09
2.71e-09
2.46119e-09
2.22744e-09
2.01016e-09
1.81014e-09
1.62764e-09
1.46246e-09
1.31405e-09
1.18157e-09
1.06399e-09
9.60347e-10
8.69227e-10
7.89382e-10
7.19701e-10
6.59014e-10
6.06128e-10
5.60175e-10
5.20106e-10
4.85161e-10
4.54585e-10
4.27707e-10
4.03951e-10
3.82819e-10
3.6388e-10
3.46769e-10
3.31167e-10
3.1668e-10
3.02759e-10
2.89099e-10
2.75719e-10
6.84093e-09
7.00726e-09
7.16627e-09
7.30749e-09
7.39723e-09
7.41252e-09
7.35412e-09
7.22619e-09
7.03511e-09
6.78888e-09
6.49649e-09
6.16742e-09
5.81113e-09
5.43687e-09
5.05312e-09
4.66764e-09
4.28716e-09
3.91737e-09
3.5629e-09
3.22731e-09
2.91318e-09
2.62216e-09
2.35507e-09
2.11203e-09
1.89257e-09
1.69581e-09
1.5205e-09
1.36514e-09
1.22838e-09
1.10826e-09
1.00309e-09
9.11356e-10
8.31488e-10
7.6189e-10
7.01419e-10
6.48671e-10
6.02664e-10
5.62396e-10
5.26996e-10
4.95715e-10
4.67906e-10
4.43012e-10
4.20562e-10
4.00144e-10
3.81263e-10
3.63246e-10
3.45716e-10
3.28681e-10
9.05332e-09
9.26206e-09
9.45894e-09
9.63006e-09
9.73048e-09
9.73044e-09
9.632e-09
9.44175e-09
9.1691e-09
8.82548e-09
8.42339e-09
7.97582e-09
7.49543e-09
6.99453e-09
6.48418e-09
5.97441e-09
5.47373e-09
4.98931e-09
4.52684e-09
4.09061e-09
3.68364e-09
3.30775e-09
2.96369e-09
2.65138e-09
2.36999e-09
2.11819e-09
1.89419e-09
1.696e-09
1.52175e-09
1.36882e-09
1.23503e-09
1.11842e-09
1.01692e-09
9.28481e-10
8.51657e-10
7.84634e-10
7.26179e-10
6.75014e-10
6.30039e-10
5.90315e-10
5.55028e-10
5.23478e-10
4.95077e-10
4.69311e-10
4.45574e-10
4.23065e-10
4.01329e-10
3.8036e-10
1.14893e-08
1.17426e-08
1.19785e-08
1.21793e-08
1.22872e-08
1.22653e-08
1.21173e-08
1.18528e-08
1.14851e-08
1.10294e-08
1.05025e-08
9.92126e-09
9.30196e-09
8.66026e-09
8.01001e-09
7.36363e-09
6.73155e-09
6.12238e-09
5.54289e-09
4.99803e-09
4.49123e-09
4.02437e-09
3.59808e-09
3.21196e-09
2.86472e-09
2.55454e-09
2.27902e-09
2.03554e-09
1.82172e-09
1.63422e-09
1.4703e-09
1.32752e-09
1.20328e-09
1.09505e-09
1.00107e-09
9.19066e-10
8.47564e-10
7.84984e-10
7.29993e-10
6.81448e-10
6.38362e-10
5.99889e-10
5.65315e-10
5.34021e-10
5.05288e-10
4.7819e-10
4.52196e-10
4.27279e-10
1.39461e-08
1.42428e-08
1.45161e-08
1.47441e-08
1.48561e-08
1.48074e-08
1.46042e-08
1.42595e-08
1.37906e-08
1.32173e-08
1.25605e-08
1.18412e-08
1.10796e-08
1.02945e-08
9.5026e-09
8.71868e-09
7.95495e-09
7.22139e-09
6.52569e-09
5.8734e-09
5.2682e-09
4.71197e-09
4.20513e-09
3.7469e-09
3.33549e-09
2.96852e-09
2.64298e-09
2.35562e-09
2.10352e-09
1.8826e-09
1.68958e-09
1.52154e-09
1.37538e-09
1.24809e-09
1.13758e-09
1.04117e-09
9.5713e-10
8.83589e-10
8.18989e-10
7.61997e-10
7.11456e-10
6.66382e-10
6.25939e-10
5.89407e-10
5.55962e-10
5.24569e-10
4.94623e-10
4.66074e-10
1.61659e-08
1.6501e-08
1.68066e-08
1.70574e-08
1.717e-08
1.70931e-08
1.68352e-08
1.6413e-08
1.58477e-08
1.51635e-08
1.43854e-08
1.35384e-08
1.26459e-08
1.17299e-08
1.08095e-08
9.9015e-09
9.01962e-09
8.17496e-09
7.37596e-09
6.62855e-09
5.93658e-09
5.30182e-09
4.72442e-09
4.20319e-09
3.73587e-09
3.31953e-09
2.95058e-09
2.6252e-09
2.34e-09
2.09019e-09
1.87205e-09
1.68224e-09
1.5172e-09
1.37348e-09
1.24876e-09
1.13996e-09
1.04514e-09
9.62187e-10
8.8935e-10
8.25127e-10
7.6822e-10
7.1752e-10
6.72093e-10
6.31129e-10
5.93718e-10
5.58736e-10
5.25519e-10
4.93994e-10
1.78883e-08
1.82529e-08
1.8583e-08
1.88502e-08
1.89608e-08
1.88582e-08
1.85533e-08
1.8066e-08
1.7421e-08
1.66463e-08
1.57702e-08
1.48208e-08
1.38245e-08
1.28055e-08
1.17848e-08
1.07806e-08
9.80776e-09
8.87812e-09
8.00057e-09
7.18122e-09
6.42396e-09
5.73038e-09
5.10033e-09
4.53229e-09
4.02355e-09
3.57074e-09
3.16981e-09
2.81648e-09
2.50699e-09
2.23601e-09
1.99949e-09
1.79376e-09
1.61491e-09
1.45921e-09
1.32412e-09
1.20627e-09
1.1036e-09
1.0138e-09
9.3498e-10
8.65511e-10
8.03994e-10
7.49236e-10
7.00227e-10
6.56093e-10
6.15863e-10
5.78356e-10
5.42869e-10
5.09306e-10
1.89131e-08
1.92954e-08
1.96397e-08
1.99158e-08
2.00227e-08
1.99009e-08
1.9563e-08
1.90314e-08
1.83335e-08
1.74996e-08
1.65607e-08
1.55469e-08
1.4486e-08
1.3404e-08
1.23228e-08
1.12615e-08
1.02353e-08
9.25637e-09
8.33382e-09
7.47373e-09
6.67986e-09
5.95362e-09
5.2946e-09
4.70099e-09
4.16978e-09
3.69732e-09
3.27924e-09
2.91098e-09
2.58859e-09
2.30638e-09
2.06012e-09
1.84598e-09
1.65986e-09
1.49783e-09
1.35728e-09
1.23467e-09
1.12788e-09
1.03448e-09
9.52514e-10
8.80305e-10
8.16391e-10
7.59535e-10
7.08687e-10
6.62942e-10
6.213e-10
5.82559e-10
5.45999e-10
5.11506e-10
1.91478e-08
1.95346e-08
1.98818e-08
2.01586e-08
2.02612e-08
2.0129e-08
1.97759e-08
1.92257e-08
1.85072e-08
1.76519e-08
1.66916e-08
1.56574e-08
1.45776e-08
1.34786e-08
1.23822e-08
1.13077e-08
1.02704e-08
9.28216e-09
8.35193e-09
7.48561e-09
6.68676e-09
5.95657e-09
5.29448e-09
4.69848e-09
4.16544e-09
3.69158e-09
3.27242e-09
2.90334e-09
2.58034e-09
2.29763e-09
2.05096e-09
1.83651e-09
1.65013e-09
1.48786e-09
1.34713e-09
1.22435e-09
1.11742e-09
1.02391e-09
9.41856e-10
8.69578e-10
8.0562e-10
7.48744e-10
6.97903e-10
6.52189e-10
6.1061e-10
5.71978e-10
5.3558e-10
5.01293e-10
1.86217e-08
1.89998e-08
1.93389e-08
1.96088e-08
1.97068e-08
1.95737e-08
1.92239e-08
1.86812e-08
1.79746e-08
1.71353e-08
1.61948e-08
1.51836e-08
1.41294e-08
1.30578e-08
1.19902e-08
1.09451e-08
9.93704e-09
8.97762e-09
8.07521e-09
7.23539e-09
6.46146e-09
5.75444e-09
5.11365e-09
4.53706e-09
4.02154e-09
3.56338e-09
3.15819e-09
2.80147e-09
2.48935e-09
2.21615e-09
1.97779e-09
1.77058e-09
1.59047e-09
1.43366e-09
1.29766e-09
1.17899e-09
1.07564e-09
9.85252e-10
9.05934e-10
8.36066e-10
7.74244e-10
7.19272e-10
6.70138e-10
6.25968e-10
5.85804e-10
5.48509e-10
5.13397e-10
4.80345e-10
1.74644e-08
1.78227e-08
1.81443e-08
1.84006e-08
1.84938e-08
1.83681e-08
1.80375e-08
1.7525e-08
1.68582e-08
1.60669e-08
1.5181e-08
1.42294e-08
1.32382e-08
1.22314e-08
1.12291e-08
1.02485e-08
9.30328e-09
8.40408e-09
7.55868e-09
6.77222e-09
6.0477e-09
5.38599e-09
4.78639e-09
4.24695e-09
3.7647e-09
3.33615e-09
2.95716e-09
2.6235e-09
2.33158e-09
2.07602e-09
1.85304e-09
1.65918e-09
1.49066e-09
1.34391e-09
1.21663e-09
1.10554e-09
1.00878e-09
9.24139e-10
8.49851e-10
7.84403e-10
7.26481e-10
6.74968e-10
6.28917e-10
5.87511e-10
5.49854e-10
5.14883e-10
4.81958e-10
4.50963e-10
1.58627e-08
1.61929e-08
1.64899e-08
1.67276e-08
1.68159e-08
1.67036e-08
1.64039e-08
1.59379e-08
1.53311e-08
1.46109e-08
1.38048e-08
1.2939e-08
1.20374e-08
1.1122e-08
1.02108e-08
9.31964e-09
8.46072e-09
7.64377e-09
6.87579e-09
6.16141e-09
5.50333e-09
4.90231e-09
4.3577e-09
3.86771e-09
3.42964e-09
3.04032e-09
2.69597e-09
2.39279e-09
2.12751e-09
1.89521e-09
1.69249e-09
1.51622e-09
1.36297e-09
1.22947e-09
1.11367e-09
1.01256e-09
9.24489e-10
8.47416e-10
7.7975e-10
7.20116e-10
6.6732e-10
6.20345e-10
5.78332e-10
5.40538e-10
5.06144e-10
4.74183e-10
4.4407e-10
4.15702e-10
1.40148e-08
1.43117e-08
1.45796e-08
1.47955e-08
1.48785e-08
1.47831e-08
1.4521e-08
1.41111e-08
1.3576e-08
1.29403e-08
1.22283e-08
1.14633e-08
1.06664e-08
9.85726e-09
9.05169e-09
8.26369e-09
7.50413e-09
6.78156e-09
6.10221e-09
5.47015e-09
4.8878e-09
4.35585e-09
3.87371e-09
3.43984e-09
3.05186e-09
2.70696e-09
2.40184e-09
2.13313e-09
1.89797e-09
1.69199e-09
1.51218e-09
1.35581e-09
1.21981e-09
1.1013e-09
9.98489e-10
9.08679e-10
8.30428e-10
7.61922e-10
7.01752e-10
6.48698e-10
6.01701e-10
5.59861e-10
5.22413e-10
4.88699e-10
4.57989e-10
4.29418e-10
4.02465e-10
3.77041e-10
1.2095e-08
1.23564e-08
1.25933e-08
1.27857e-08
1.28631e-08
1.27856e-08
1.25634e-08
1.22128e-08
1.17536e-08
1.12068e-08
1.05937e-08
9.93432e-09
9.24704e-09
8.54872e-09
7.85317e-09
7.17248e-09
6.51607e-09
5.89136e-09
5.30378e-09
4.75688e-09
4.2528e-09
3.79216e-09
3.37451e-09
2.99853e-09
2.66219e-09
2.3631e-09
2.09842e-09
1.86523e-09
1.66111e-09
1.48225e-09
1.32606e-09
1.19019e-09
1.07199e-09
9.6895e-10
8.79538e-10
8.01392e-10
7.33281e-10
6.73624e-10
6.21198e-10
5.74945e-10
5.33943e-10
4.9741e-10
4.64684e-10
4.3519e-10
4.0829e-10
3.83226e-10
3.59538e-10
3.37157e-10
1.02356e-08
1.04617e-08
1.06677e-08
1.08365e-08
1.09078e-08
1.08475e-08
1.0664e-08
1.03713e-08
9.98603e-09
9.52598e-09
9.00908e-09
8.45249e-09
7.87168e-09
7.28102e-09
6.69221e-09
6.11556e-09
5.55908e-09
5.02914e-09
4.53038e-09
4.06588e-09
3.63751e-09
3.24584e-09
2.89054e-09
2.57052e-09
2.28411e-09
2.02931e-09
1.80372e-09
1.60489e-09
1.43079e-09
1.27817e-09
1.14484e-09
1.02882e-09
9.27849e-10
8.39788e-10
7.63356e-10
6.96519e-10
6.38241e-10
5.87169e-10
5.4226e-10
5.0261e-10
4.67434e-10
4.36063e-10
4.07929e-10
3.82544e-10
3.59356e-10
3.37709e-10
3.17209e-10
2.97799e-10
8.52331e-09
8.71607e-09
8.89265e-09
9.03873e-09
9.10366e-09
9.05868e-09
8.91071e-09
8.67122e-09
8.35398e-09
7.97386e-09
7.54575e-09
7.08394e-09
6.60134e-09
6.10995e-09
5.61956e-09
5.13882e-09
4.67447e-09
4.23189e-09
3.81501e-09
3.42647e-09
3.06789e-09
2.73981e-09
2.442e-09
2.17361e-09
1.93326e-09
1.71933e-09
1.52982e-09
1.36271e-09
1.21634e-09
1.08795e-09
9.75753e-10
8.78086e-10
7.93053e-10
7.18857e-10
6.54438e-10
5.98073e-10
5.48907e-10
5.05793e-10
4.67857e-10
4.34337e-10
4.04573e-10
3.77999e-10
3.5414e-10
3.32581e-10
3.12856e-10
2.94403e-10
2.76884e-10
2.60259e-10
7.00462e-09
7.16698e-09
7.3166e-09
7.44165e-09
7.50011e-09
7.46806e-09
7.35104e-09
7.15834e-09
6.90123e-09
6.59184e-09
6.24239e-09
5.86461e-09
5.46912e-09
5.06581e-09
4.66279e-09
4.26723e-09
3.88472e-09
3.51977e-09
3.17567e-09
2.85468e-09
2.55818e-09
2.28669e-09
2.04007e-09
1.81766e-09
1.61835e-09
1.44084e-09
1.2835e-09
1.14469e-09
1.02306e-09
9.1631e-10
8.22978e-10
7.41704e-10
6.70915e-10
6.09115e-10
5.55443e-10
5.08452e-10
4.67444e-10
4.31462e-10
3.99777e-10
3.71759e-10
3.46854e-10
3.24594e-10
3.04582e-10
2.86472e-10
2.69872e-10
2.54306e-10
2.39491e-10
2.25395e-10
5.69562e-09
5.83107e-09
5.95665e-09
6.06271e-09
6.11482e-09
6.09323e-09
6.00231e-09
5.84948e-09
5.6438e-09
5.39509e-09
5.11322e-09
4.80772e-09
4.48724e-09
4.15985e-09
3.83218e-09
3.51011e-09
3.19827e-09
2.90039e-09
2.61921e-09
2.35665e-09
2.11389e-09
1.8914e-09
1.68912e-09
1.50656e-09
1.34285e-09
1.19694e-09
1.06754e-09
9.53306e-10
8.53161e-10
7.65226e-10
6.88304e-10
6.21294e-10
5.62903e-10
5.11901e-10
4.67591e-10
4.28774e-10
3.94882e-10
3.65125e-10
3.38902e-10
3.15692e-10
2.95041e-10
2.76561e-10
2.59923e-10
2.44844e-10
2.30995e-10
2.17977e-10
2.05552e-10
1.937e-10
4.59188e-09
4.70401e-09
4.80863e-09
4.89792e-09
4.94391e-09
4.93044e-09
4.86089e-09
4.74114e-09
4.57838e-09
4.38046e-09
4.15531e-09
3.91057e-09
3.65321e-09
3.38979e-09
3.12567e-09
2.86566e-09
2.61354e-09
2.37238e-09
2.14447e-09
1.9314e-09
1.73419e-09
1.55327e-09
1.38864e-09
1.23992e-09
1.10646e-09
9.8743e-10
8.81794e-10
7.88485e-10
7.06643e-10
6.34738e-10
5.71807e-10
5.16962e-10
4.6915e-10
4.27367e-10
3.91053e-10
3.59221e-10
3.31415e-10
3.06983e-10
2.85437e-10
2.6635e-10
2.49349e-10
2.34115e-10
2.20382e-10
2.07913e-10
1.9644e-10
1.85626e-10
1.75276e-10
1.65376e-10
3.67694e-09
3.7692e-09
3.85582e-09
3.93054e-09
3.97077e-09
3.96339e-09
3.91097e-09
3.81811e-09
3.69049e-09
3.5343e-09
3.35586e-09
3.16128e-09
2.95613e-09
2.74567e-09
2.53425e-09
2.32575e-09
2.12326e-09
1.92928e-09
1.74571e-09
1.57388e-09
1.41467e-09
1.26845e-09
1.13526e-09
1.01485e-09
9.0669e-10
8.10155e-10
7.24424e-10
6.48649e-10
5.82153e-10
5.23696e-10
4.72508e-10
4.27878e-10
3.88954e-10
3.54919e-10
3.25329e-10
2.99375e-10
2.76691e-10
2.56747e-10
2.39145e-10
2.23537e-10
2.09619e-10
1.97132e-10
1.85858e-10
1.75606e-10
1.66152e-10
1.57219e-10
1.48643e-10
1.40418e-10
2.92844e-09
3.004e-09
3.07539e-09
3.13762e-09
3.17255e-09
3.16958e-09
3.13066e-09
3.05932e-09
2.96002e-09
2.83763e-09
2.69713e-09
2.54337e-09
2.38079e-09
2.2136e-09
2.04529e-09
1.87898e-09
1.71719e-09
1.56195e-09
1.41484e-09
1.27694e-09
1.14901e-09
1.0314e-09
9.24149e-10
8.27095e-10
7.39846e-10
6.61911e-10
5.92649e-10
5.31389e-10
4.77601e-10
4.30289e-10
3.88838e-10
3.52681e-10
3.21133e-10
2.93533e-10
2.69528e-10
2.48459e-10
2.30036e-10
2.13828e-10
1.9951e-10
1.86803e-10
1.7546e-10
1.65269e-10
1.56055e-10
1.47661e-10
1.39905e-10
1.32556e-10
1.25481e-10
1.18676e-10
2.32238e-09
2.38403e-09
2.44266e-09
2.49428e-09
2.52441e-09
2.52452e-09
2.49604e-09
2.44169e-09
2.36494e-09
2.26958e-09
2.15955e-09
2.03865e-09
1.91043e-09
1.77821e-09
1.6448e-09
1.5127e-09
1.38396e-09
1.26022e-09
1.14277e-09
1.03253e-09
9.30124e-10
8.35862e-10
7.49817e-10
6.71872e-10
6.01739e-10
5.39041e-10
4.83278e-10
4.33925e-10
3.90567e-10
3.52406e-10
3.18954e-10
2.89762e-10
2.6428e-10
2.41974e-10
2.22567e-10
2.05523e-10
1.90611e-10
1.77483e-10
1.65877e-10
1.55567e-10
1.46353e-10
1.38064e-10
1.30558e-10
1.23709e-10
1.17367e-10
1.11342e-10
1.05524e-10
9.99126e-11
1.83556e-09
1.88573e-09
1.93374e-09
1.97643e-09
2.00228e-09
2.00442e-09
1.98392e-09
1.94284e-09
1.88386e-09
1.80994e-09
1.72415e-09
1.62948e-09
1.52873e-09
1.42455e-09
1.31917e-09
1.21459e-09
1.11247e-09
1.01414e-09
9.20663e-10
8.32787e-10
7.51045e-10
6.7571e-10
6.06866e-10
5.44437e-10
4.88213e-10
4.37907e-10
3.93131e-10
3.53473e-10
3.18614e-10
2.87914e-10
2.60988e-10
2.3748e-10
2.16949e-10
1.98969e-10
1.83319e-10
1.69566e-10
1.57528e-10
1.46922e-10
1.37539e-10
1.29195e-10
1.21729e-10
1.15005e-10
1.08906e-10
1.03331e-10
9.81583e-11
9.32306e-11
8.84588e-11
8.38438e-11
1.44697e-09
1.48771e-09
1.52694e-09
1.56216e-09
1.58423e-09
1.58765e-09
1.57317e-09
1.54237e-09
1.49729e-09
1.44024e-09
1.3736e-09
1.29972e-09
1.22081e-09
1.13895e-09
1.05593e-09
9.73357e-10
8.92546e-10
8.14594e-10
7.40355e-10
6.70459e-10
6.05349e-10
5.45265e-10
4.90292e-10
4.4039e-10
3.95404e-10
3.55118e-10
3.19232e-10
2.87425e-10
2.59452e-10
2.348e-10
2.13166e-10
1.94271e-10
1.77761e-10
1.63294e-10
1.50697e-10
1.39621e-10
1.2992e-10
1.21368e-10
1.13795e-10
1.07055e-10
1.01018e-10
9.55725e-11
9.06264e-11
8.60976e-11
8.18864e-11
7.78642e-11
7.39578e-11
7.01696e-11
1.13828e-09
1.17131e-09
1.20332e-09
1.23233e-09
1.25109e-09
1.2552e-09
1.2452e-09
1.22228e-09
1.18799e-09
1.14413e-09
1.09253e-09
1.03504e-09
9.73382e-10
9.09221e-10
8.43959e-10
7.7889e-10
7.15068e-10
6.53382e-10
5.94529e-10
5.39028e-10
4.87252e-10
4.39408e-10
3.95581e-10
3.55753e-10
3.19813e-10
2.87599e-10
2.5888e-10
2.33407e-10
2.1099e-10
1.91224e-10
1.73867e-10
1.587e-10
1.45442e-10
1.33819e-10
1.23694e-10
1.14786e-10
1.0698e-10
1.00093e-10
9.39902e-11
8.8553e-11
8.36772e-11
7.9274e-11
7.52682e-11
7.15941e-11
6.81706e-11
6.4892e-11
6.16987e-11
5.85939e-11
8.93994e-10
9.20755e-10
9.46838e-10
9.70698e-10
9.86595e-10
9.91013e-10
9.84324e-10
9.67414e-10
9.41473e-10
9.07866e-10
8.6803e-10
8.23402e-10
7.75331e-10
7.25131e-10
6.73915e-10
6.22715e-10
5.7238e-10
5.23628e-10
4.77027e-10
4.33005e-10
3.91874e-10
3.53815e-10
3.18908e-10
2.87149e-10
2.58462e-10
2.32725e-10
2.09762e-10
1.89379e-10
1.71432e-10
1.55595e-10
1.41682e-10
1.29518e-10
1.18881e-10
1.0955e-10
1.01419e-10
9.42599e-11
8.7984e-11
8.24434e-11
7.75294e-11
7.31473e-11
6.92132e-11
6.56557e-11
6.24144e-11
5.94365e-11
5.66559e-11
5.39862e-11
5.13786e-11
4.88367e-11
7.0125e-10
7.22913e-10
7.44154e-10
7.63759e-10
7.77194e-10
7.81647e-10
7.77365e-10
7.65008e-10
7.45478e-10
7.1982e-10
6.89146e-10
6.54574e-10
6.17162e-10
5.77944e-10
5.37803e-10
4.97564e-10
4.57907e-10
4.19412e-10
3.82544e-10
3.47655e-10
3.15005e-10
2.8475e-10
2.56965e-10
2.31657e-10
2.08773e-10
1.88223e-10
1.69872e-10
1.53572e-10
1.39209e-10
1.26529e-10
1.15382e-10
1.05632e-10
9.71016e-11
8.96147e-11
8.30883e-11
7.73389e-11
7.22958e-11
6.78406e-11
6.38862e-11
6.03563e-11
5.71838e-11
5.43113e-11
5.16902e-11
4.9278e-11
4.70211e-11
4.48486e-11
4.27208e-11
4.06414e-11
5.49521e-10
5.67051e-10
5.8434e-10
6.00433e-10
6.11746e-10
6.16039e-10
6.13472e-10
6.04533e-10
5.89899e-10
5.70372e-10
5.46808e-10
5.20076e-10
4.91004e-10
4.60406e-10
4.28982e-10
3.97388e-10
3.66171e-10
3.358e-10
3.06653e-10
2.7902e-10
2.53119e-10
2.29082e-10
2.06978e-10
1.86821e-10
1.68575e-10
1.52175e-10
1.37517e-10
1.24487e-10
1.12999e-10
1.02849e-10
9.39225e-11
8.61107e-11
7.92726e-11
7.32678e-11
6.80314e-11
6.34156e-11
5.93648e-11
5.57837e-11
5.26025e-11
4.97602e-11
4.72027e-11
4.48841e-11
4.27652e-11
4.0812e-11
3.89808e-11
3.72136e-11
3.54782e-11
3.3778e-11
4.30294e-10
4.44477e-10
4.58546e-10
4.71753e-10
4.81268e-10
4.85302e-10
4.83952e-10
4.77572e-10
4.66673e-10
4.51864e-10
4.33806e-10
4.13173e-10
3.9061e-10
3.66761e-10
3.42178e-10
3.17387e-10
2.92824e-10
2.6887e-10
2.45833e-10
2.2395e-10
2.03405e-10
1.84309e-10
1.66725e-10
1.5067e-10
1.36121e-10
1.23032e-10
1.11323e-10
1.00906e-10
9.17171e-11
8.35931e-11
7.64436e-11
7.01842e-11
6.47024e-11
5.98862e-11
5.56846e-11
5.19788e-11
4.87249e-11
4.58463e-11
4.32872e-11
4.09986e-11
3.8937e-11
3.70655e-11
3.53528e-11
3.37714e-11
3.22858e-11
3.08487e-11
2.94336e-11
2.80439e-11
3.36736e-10
3.48212e-10
3.5966e-10
3.70495e-10
3.78484e-10
3.82197e-10
3.81686e-10
3.77207e-10
3.6914e-10
3.5795e-10
3.44143e-10
3.28243e-10
3.10753e-10
2.9218e-10
2.72962e-10
2.53517e-10
2.34197e-10
2.15308e-10
1.97102e-10
1.79775e-10
1.63478e-10
1.48307e-10
1.34318e-10
1.2153e-10
1.09929e-10
9.94809e-11
9.01267e-11
8.17982e-11
7.44465e-11
6.79429e-11
6.2216e-11
5.71999e-11
5.28048e-11
4.89413e-11
4.55697e-11
4.2594e-11
3.99799e-11
3.76658e-11
3.56069e-11
3.37638e-11
3.21018e-11
3.05911e-11
2.92066e-11
2.79262e-11
2.6721e-11
2.55522e-11
2.43985e-11
2.32629e-11
2.63401e-10
2.72688e-10
2.82004e-10
2.90888e-10
2.97576e-10
3.00932e-10
3.00975e-10
2.9789e-10
2.91958e-10
2.83531e-10
2.72999e-10
2.60764e-10
2.47222e-10
2.32771e-10
2.17757e-10
2.02513e-10
1.87322e-10
1.72432e-10
1.58047e-10
1.44329e-10
1.31403e-10
1.19352e-10
1.08223e-10
9.80373e-11
8.87861e-11
8.04464e-11
7.29731e-11
6.6314e-11
6.04322e-11
5.52254e-11
5.06378e-11
4.66176e-11
4.30935e-11
3.99939e-11
3.7288e-11
3.48983e-11
3.27979e-11
3.09373e-11
2.92805e-11
2.77961e-11
2.6456e-11
2.52364e-11
2.4117e-11
2.308e-11
2.21022e-11
2.11517e-11
2.0211e-11
1.92829e-11
2.05966e-10
2.13484e-10
2.21066e-10
2.28352e-10
2.3395e-10
2.36952e-10
2.37356e-10
2.35292e-10
2.30969e-10
2.24651e-10
2.16636e-10
2.07238e-10
1.96763e-10
1.85525e-10
1.73799e-10
1.61849e-10
1.49904e-10
1.38164e-10
1.26795e-10
1.15931e-10
1.05675e-10
9.60975e-11
8.72404e-11
7.91229e-11
7.17421e-11
6.50817e-11
5.91079e-11
5.37807e-11
4.90723e-11
4.49015e-11
4.12246e-11
3.80009e-11
3.51737e-11
3.26858e-11
3.05129e-11
2.85929e-11
2.69045e-11
2.54079e-11
2.40741e-11
2.2878e-11
2.17971e-11
2.0812e-11
1.99067e-11
1.90667e-11
1.82731e-11
1.74999e-11
1.67328e-11
1.59744e-11
1.61013e-10
1.671e-10
1.73273e-10
1.79247e-10
1.83925e-10
1.86581e-10
1.87201e-10
1.85873e-10
1.82752e-10
1.78037e-10
1.71954e-10
1.64745e-10
1.56652e-10
1.47918e-10
1.38763e-10
1.29398e-10
1.20006e-10
1.10749e-10
1.01763e-10
9.3157e-11
8.50178e-11
7.74039e-11
7.03526e-11
6.38816e-11
5.7991e-11
5.267e-11
4.78932e-11
4.36299e-11
3.98595e-11
3.65173e-11
3.35692e-11
3.09832e-11
2.87142e-11
2.67164e-11
2.4971e-11
2.34278e-11
2.207e-11
2.08656e-11
1.97915e-11
1.88273e-11
1.7955e-11
1.71591e-11
1.64266e-11
1.57459e-11
1.51017e-11
1.44725e-11
1.38468e-11
1.3227e-11
1.25846e-10
1.30778e-10
1.35805e-10
1.40705e-10
1.44614e-10
1.46948e-10
1.47687e-10
1.46888e-10
1.44664e-10
1.41164e-10
1.3656e-10
1.31041e-10
1.24793e-10
1.18009e-10
1.10862e-10
1.03522e-10
9.61359e-11
8.88341e-11
8.1728e-11
7.49073e-11
6.8444e-11
6.23875e-11
5.677e-11
5.1608e-11
4.69035e-11
4.26495e-11
3.88271e-11
3.54129e-11
3.23914e-11
2.97113e-11
2.73459e-11
2.527e-11
2.34478e-11
2.18425e-11
2.04395e-11
1.91983e-11
1.81057e-11
1.71359e-11
1.62703e-11
1.54927e-11
1.47884e-11
1.4145e-11
1.3552e-11
1.30002e-11
1.2477e-11
1.19648e-11
1.14544e-11
1.09477e-11
9.83459e-11
1.02343e-10
1.06438e-10
1.10456e-10
1.13713e-10
1.15744e-10
1.16525e-10
1.16094e-10
1.14531e-10
1.11946e-10
1.08473e-10
1.04254e-10
9.94356e-11
9.41699e-11
8.8594e-11
8.28428e-11
7.70347e-11
7.12757e-11
6.56564e-11
6.02505e-11
5.51176e-11
5.02994e-11
4.58237e-11
4.17053e-11
3.79474e-11
3.45459e-11
3.14866e-11
2.87517e-11
2.63299e-11
2.41803e-11
2.22819e-11
2.0615e-11
1.91512e-11
1.78609e-11
1.67328e-11
1.57341e-11
1.48546e-11
1.40734e-11
1.33756e-11
1.27482e-11
1.21793e-11
1.16589e-11
1.11787e-11
1.07312e-11
1.0306e-11
9.88902e-12
9.47246e-12
9.0581e-12
7.68474e-11
8.00892e-11
8.34268e-11
8.6724e-11
8.94413e-11
9.12056e-11
9.19894e-11
9.18154e-11
9.07407e-11
8.88478e-11
8.62366e-11
8.30183e-11
7.93061e-11
7.52201e-11
7.0869e-11
6.63609e-11
6.17909e-11
5.72452e-11
5.27976e-11
4.85089e-11
4.44285e-11
4.05914e-11
3.70215e-11
3.37321e-11
3.07271e-11
2.80042e-11
2.5553e-11
2.336e-11
2.14166e-11
1.96907e-11
1.81655e-11
1.68257e-11
1.56486e-11
1.46105e-11
1.37025e-11
1.28983e-11
1.21897e-11
1.15599e-11
1.09969e-11
1.04902e-11
1.00303e-11
9.60925e-12
9.22011e-12
8.85689e-12
8.5113e-12
8.1716e-12
7.83153e-12
7.49261e-12
2.30349e-09
2.23434e-09
2.17359e-09
2.12104e-09
2.0765e-09
2.03982e-09
2.01089e-09
1.9896e-09
1.9759e-09
1.96975e-09
2.10846e-09
2.48551e-09
2.85357e-09
3.12197e-09
2.96338e-09
2.71942e-09
2.47647e-09
2.15146e-09
1.78977e-09
1.4337e-09
1.11355e-09
8.44823e-10
6.3059e-10
4.66039e-10
3.42799e-10
2.51923e-10
1.85445e-10
1.36938e-10
1.01501e-10
7.55249e-11
2.38085e-09
2.32146e-09
2.26969e-09
2.22553e-09
2.18898e-09
2.16007e-09
2.13883e-09
2.12532e-09
2.11962e-09
2.12182e-09
2.28092e-09
2.70158e-09
3.11852e-09
3.43255e-09
3.27955e-09
3.03021e-09
2.77857e-09
2.43011e-09
2.0343e-09
1.63892e-09
1.27939e-09
9.74889e-10
7.30369e-10
5.41446e-10
3.99275e-10
2.9403e-10
2.16798e-10
1.60299e-10
1.1894e-10
8.85729e-11
2.52926e-09
2.47732e-09
2.43248e-09
2.39493e-09
2.36486e-09
2.34245e-09
2.32788e-09
2.32136e-09
2.3231e-09
2.33334e-09
2.51686e-09
2.99228e-09
3.46891e-09
3.83629e-09
3.68389e-09
3.42175e-09
3.15409e-09
2.7725e-09
2.33187e-09
1.88668e-09
1.47837e-09
1.13019e-09
8.49069e-10
6.30908e-10
4.66143e-10
3.43815e-10
2.5383e-10
1.87874e-10
1.39513e-10
1.03961e-10
2.75334e-09
2.70666e-09
2.66683e-09
2.63423e-09
2.60923e-09
2.59217e-09
2.58338e-09
2.5832e-09
2.592e-09
2.61013e-09
2.82274e-09
3.36551e-09
3.91416e-09
4.34398e-09
4.18715e-09
3.90438e-09
3.61293e-09
3.18767e-09
2.69037e-09
2.1836e-09
1.71581e-09
1.31492e-09
9.89929e-10
7.36891e-10
5.45267e-10
4.02677e-10
2.97592e-10
2.20448e-10
1.63813e-10
1.22133e-10
3.06005e-09
3.01646e-09
2.97976e-09
2.95052e-09
2.92926e-09
2.91647e-09
2.91266e-09
2.9183e-09
2.93389e-09
2.95994e-09
3.20705e-09
3.83154e-09
4.46643e-09
4.96935e-09
4.80286e-09
4.49106e-09
4.1674e-09
3.68675e-09
3.11942e-09
2.53768e-09
1.99819e-09
1.53416e-09
1.15687e-09
8.62376e-10