/*--------------------------------*- C++ -*----------------------------------*\
| =========                 |                                                 |
| \\      /  F ield         | OpenFOAM: The Open Source CFD Toolbox           |
|  \\    /   O peration     | Version:  2212                                  |
|   \\  /    A nd           | Website:  www.openfoam.com                      |
|    \\/     M anipulation  |                                                 |
\*---------------------------------------------------------------------------*/
FoamFile
{
    version     2.0;
    format      ascii;
    arch        "LSB;label=32;scalar=64";
    class       volScalarField;
    location    "1000";
    object      nut;
}
// * * * * * * * * * * * * * * * * * * * * * * * * * * * * * * * * * * * * * //

dimensions      [0 2 -1 0 0 0 0];

internalField   nonuniform List<scalar> 
3600
(
1.28103e-11
5.94893e-11
1.57974e-10
3.12391e-10
5.29328e-10
8.14394e-10
1.16926e-09
1.58968e-09
2.06569e-09
2.58399e-09
3.13095e-09
3.695e-09
4.26766e-09
4.84361e-09
5.42009e-09
5.99617e-09
6.57205e-09
7.14856e-09
7.72679e-09
8.30788e-09
8.89287e-09
9.48268e-09
1.0078e-08
1.06794e-08
1.12871e-08
1.19013e-08
1.25221e-08
1.31491e-08
1.37821e-08
1.44205e-08
1.50639e-08
1.57115e-08
1.63624e-08
1.70158e-08
1.76704e-08
1.83253e-08
1.8979e-08
1.96303e-08
2.02776e-08
2.09193e-08
2.15537e-08
2.21789e-08
2.27932e-08
2.33943e-08
2.39803e-08
2.45488e-08
2.50975e-08
2.5624e-08
2.61257e-08
2.66001e-08
2.70445e-08
2.74562e-08
2.78325e-08
2.81705e-08
2.84675e-08
2.8721e-08
2.89282e-08
2.90868e-08
2.91944e-08
2.92491e-08
5.94893e-11
8.11687e-11
3.01494e-10
8.10912e-10
1.71488e-09
3.10715e-09
5.00172e-09
7.31693e-09
9.9179e-09
1.26756e-08
1.55007e-08
1.83475e-08
2.12035e-08
2.40756e-08
2.69798e-08
2.99349e-08
3.29591e-08
3.60683e-08
3.92755e-08
4.2591e-08
4.60227e-08
4.95758e-08
5.32537e-08
5.7058e-08
6.09888e-08
6.50448e-08
6.92235e-08
7.35211e-08
7.79331e-08
8.24539e-08
8.70769e-08
9.17951e-08
9.65996e-08
1.01481e-07
1.06429e-07
1.11433e-07
1.1648e-07
1.21557e-07
1.2665e-07
1.31743e-07
1.36819e-07
1.41862e-07
1.46853e-07
1.51771e-07
1.56597e-07
1.61307e-07
1.6588e-07
1.70292e-07
1.74517e-07
1.78531e-07
1.82307e-07
1.85819e-07
1.8904e-07
1.91942e-07
1.94499e-07
1.96687e-07
1.98479e-07
1.99852e-07
2.00785e-07
2.0126e-07
1.57974e-10
3.01494e-10
2.80561e-09
1.18499e-08
2.9661e-08
5.78545e-08
9.65508e-08
1.43668e-07
1.95999e-07
2.50652e-07
3.05768e-07
3.60526e-07
4.14827e-07
4.68962e-07
5.23373e-07
5.78522e-07
6.34816e-07
6.92597e-07
7.52126e-07
8.13594e-07
8.77134e-07
9.42824e-07
1.0107e-06
1.08076e-06
1.15298e-06
1.22729e-06
1.30363e-06
1.38188e-06
1.46194e-06
1.54369e-06
1.62696e-06
1.71163e-06
1.7975e-06
1.88438e-06
1.9721e-06
2.06043e-06
2.14916e-06
2.23803e-06
2.32681e-06
2.41523e-06
2.503e-06
2.58983e-06
2.67543e-06
2.75946e-06
2.84159e-06
2.92147e-06
2.99875e-06
3.07306e-06
3.14399e-06
3.21116e-06
3.27417e-06
3.33263e-06
3.38611e-06
3.43419e-06
3.47648e-06
3.51258e-06
3.54212e-06
3.56474e-06
3.58009e-06
3.5879e-06
3.12391e-10
8.10912e-10
1.18499e-08
7.32266e-08
2.24895e-07
4.73802e-07
8.0828e-07
1.20279e-06
1.62652e-06
2.05457e-06
2.47252e-06
2.87509e-06
3.26282e-06
3.63912e-06
4.00822e-06
4.37419e-06
4.74044e-06
5.1097e-06
5.48387e-06
5.86432e-06
6.25184e-06
6.64684e-06
7.04939e-06
7.45934e-06
7.8763e-06
8.29975e-06
8.7291e-06
9.16358e-06
9.60243e-06
1.00448e-05
1.04899e-05
1.09368e-05
1.13846e-05
1.18322e-05
1.22787e-05
1.27232e-05
1.31645e-05
1.36017e-05
1.40336e-05
1.44592e-05
1.48774e-05
1.52869e-05
1.56868e-05
1.60756e-05
1.64522e-05
1.68154e-05
1.71638e-05
1.74963e-05
1.78113e-05
1.81076e-05
1.83838e-05
1.86385e-05
1.88703e-05
1.90776e-05
1.92592e-05
1.94137e-05
1.95397e-05
1.9636e-05
1.97012e-05
1.97343e-05
5.29328e-10
1.71488e-09
2.9661e-08
2.24895e-07
8.4952e-07
2.01028e-06
3.56808e-06
5.3137e-06
7.07729e-06
8.75518e-06
1.03024e-05
1.17136e-05
1.30048e-05
1.42e-05
1.53237e-05
1.63976e-05
1.74388e-05
1.84606e-05
1.94722e-05
2.04802e-05
2.14887e-05
2.25e-05
2.35152e-05
2.45345e-05
2.55574e-05
2.65828e-05
2.76096e-05
2.86361e-05
2.96607e-05
3.06819e-05
3.16978e-05
3.2707e-05
3.37076e-05
3.46976e-05
3.56758e-05
3.66401e-05
3.7589e-05
3.85206e-05
3.94336e-05
4.03258e-05
4.11956e-05
4.20413e-05
4.28612e-05
4.36532e-05
4.44156e-05
4.51464e-05
4.58437e-05
4.65055e-05
4.71297e-05
4.7714e-05
4.82564e-05
4.87548e-05
4.92069e-05
4.961e-05
4.99621e-05
5.0261e-05
5.05044e-05
5.069e-05
5.08156e-05
5.08794e-05
8.14395e-10
3.10715e-09
5.78546e-08
4.73802e-07
2.01028e-06
5.22836e-06
9.68505e-06
1.45066e-05
1.90996e-05
2.32091e-05
2.67794e-05
2.9852e-05
3.25077e-05
3.48357e-05
3.69185e-05
3.88249e-05
4.06095e-05
4.23132e-05
4.39656e-05
4.55876e-05
4.7193e-05
4.87906e-05
5.03854e-05
5.19799e-05
5.35745e-05
5.51685e-05
5.67604e-05
5.83482e-05
5.99294e-05
6.15015e-05
6.30621e-05
6.46087e-05
6.61384e-05
6.76487e-05
6.91371e-05
7.06012e-05
7.20387e-05
7.34468e-05
7.48237e-05
7.61663e-05
7.74727e-05
7.87402e-05
7.99666e-05
8.11493e-05
8.22857e-05
8.33731e-05
8.44091e-05
8.53908e-05
8.63153e-05
8.71798e-05
8.79812e-05
8.8717e-05
8.93836e-05
8.99775e-05
9.04959e-05
9.09356e-05
9.12935e-05
9.15662e-05
9.17507e-05
9.18445e-05
1.16926e-09
5.00173e-09
9.65508e-08
8.0828e-07
3.56808e-06
9.68505e-06
1.84335e-05
2.78967e-05
3.67371e-05
4.44312e-05
5.0906e-05
5.62783e-05
6.07301e-05
6.44527e-05
6.76213e-05
7.03848e-05
7.28625e-05
7.51466e-05
7.73058e-05
7.93892e-05
8.14313e-05
8.34545e-05
8.54731e-05
8.7495e-05
8.95238e-05
9.156e-05
9.36022e-05
9.56475e-05
9.76925e-05
9.97331e-05
0.000101765
0.000103785
0.000105788
0.00010777
0.000109727
0.000111655
0.00011355
0.000115409
0.000117228
0.000119003
0.000120731
0.000122409
0.000124033
0.000125599
0.000127105
0.000128545
0.000129918
0.000131219
0.000132444
0.000133589
0.000134651
0.000135625
0.000136508
0.000137295
0.000137982
0.000138564
0.000139038
0.000139399
0.000139643
0.000139768
1.58968e-09
7.31693e-09
1.43668e-07
1.20279e-06
5.3137e-06
1.45066e-05
2.78967e-05
4.26996e-05
5.67705e-05
6.91358e-05
7.9559e-05
8.81487e-05
9.51501e-05
0.000100847
0.000105514
0.000109399
0.000112711
0.000115617
0.00011825
0.000120709
0.000123067
0.000125374
0.000127664
0.00012996
0.000132273
0.000134609
0.000136968
0.00013935
0.000141749
0.000144159
0.000146577
0.000148994
0.000151405
0.000153801
0.000156179
0.00015853
0.00016085
0.000163132
0.000165372
0.000167563
0.000169701
0.00017178
0.000173796
0.000175743
0.000177617
0.000179412
0.000181124
0.000182747
0.000184278
0.000185709
0.000187037
0.000188256
0.000189362
0.000190347
0.000191206
0.000191936
0.00019253
0.000192982
0.000193288
0.000193444
2.06569e-09
9.9179e-09
1.95999e-07
1.62652e-06
7.07729e-06
1.90997e-05
3.67371e-05
5.67705e-05
7.64587e-05
9.42897e-05
0.000109679
0.000122568
0.000133155
0.000141748
0.000148687
0.000154304
0.0001589
0.000162734
0.000166023
0.000168937
0.000171612
0.000174146
0.000176611
0.000179058
0.000181517
0.00018401
0.000186544
0.000189124
0.000191747
0.000194409
0.000197102
0.00019982
0.000202551
0.000205287
0.000208019
0.000210738
0.000213435
0.000216101
0.000218729
0.00022131
0.000223836
0.000226301
0.000228697
0.000231018
0.000233255
0.000235403
0.000237454
0.000239403
0.000241242
0.000242965
0.000244563
0.000246033
0.000247367
0.000248556
0.000249594
0.000250475
0.000251193
0.00025174
0.000252111
0.000252299
2.58399e-09
1.26756e-08
2.50652e-07
2.05457e-06
8.75518e-06
2.32091e-05
4.44312e-05
6.91358e-05
9.42897e-05
0.000117912
0.000138981
0.000157127
0.000172371
0.00018494
0.000195166
0.000203415
0.000210052
0.000215417
0.000219813
0.000223497
0.000226681
0.000229536
0.000232191
0.000234744
0.000237264
0.000239797
0.000242376
0.000245014
0.000247722
0.000250496
0.000253336
0.000256231
0.000259172
0.000262147
0.000265145
0.000268152
0.000271157
0.000274148
0.000277113
0.000280041
0.000282922
0.000285744
0.000288499
0.000291175
0.000293764
0.000296255
0.00029864
0.000300911
0.000303058
0.000305073
0.000306944
0.000308668
0.000310234
0.00031163
0.000312851
0.000313888
0.000314734
0.000315378
0.000315814
0.000316036
3.13096e-09
1.55007e-08
3.05768e-07
2.47252e-06
1.03024e-05
2.67794e-05
5.09061e-05
7.95591e-05
0.000109679
0.000138981
0.000166026
0.000190072
0.000210857
0.000228429
0.000243016
0.000254948
0.000264598
0.00027235
0.000278569
0.000283593
0.000287716
0.00029119
0.000294219
0.000296967
0.000299561
0.000302092
0.000304628
0.000307212
0.000309871
0.000312619
0.000315462
0.000318397
0.000321415
0.000324504
0.000327653
0.000330844
0.000334065
0.000337298
0.00034053
0.000343743
0.000346925
0.00035006
0.000353135
0.000356137
0.000359053
0.000361868
0.000364573
0.000367155
0.000369603
0.000371904
0.000374046
0.000376022
0.000377821
0.000379427
0.000380832
0.000382027
0.000383002
0.000383745
0.000384248
0.000384505
3.695e-09
1.83475e-08
3.60526e-07
2.87509e-06
1.17137e-05
2.9852e-05
5.62784e-05
8.81488e-05
0.000122569
0.000157127
0.000190072
0.000220294
0.000247205
0.000270595
0.000290513
0.000307174
0.000320893
0.000332038
0.000341
0.000348164
0.000353891
0.00035851
0.000362306
0.00036552
0.00036835
0.000370953
0.000373449
0.000375926
0.000378446
0.000381049
0.000383761
0.000386591
0.00038954
0.000392602
0.000395765
0.000399014
0.000402332
0.000405702
0.000409104
0.000412519
0.000415928
0.000419311
0.000422652
0.000425933
0.000429136
0.000432244
0.000435242
0.000438115
0.000440847
0.000443422
0.000445826
0.000448048
0.000450075
0.000451888
0.000453476
0.000454828
0.000455932
0.000456774
0.000457345
0.000457636
4.26766e-09
2.12036e-08
4.14828e-07
3.26283e-06
1.30048e-05
3.25077e-05
6.07302e-05
9.51503e-05
0.000133156
0.000172371
0.000210858
0.000247205
0.000280503
0.00031025
0.000336258
0.000358565
0.000377365
0.00039295
0.000405679
0.000415941
0.000424133
0.000430636
0.000435806
0.00043996
0.000443375
0.000446283
0.000448873
0.000451294
0.000453659
0.000456051
0.000458529
0.000461128
0.000463867
0.000466752
0.00046978
0.000472941
0.000476218
0.000479594
0.000483047
0.000486554
0.000490093
0.000493638
0.00049717
0.000500664
0.000504099
0.000507451
0.000510703
0.000513833
0.000516821
0.00051965
0.000522298
0.000524752
0.000526998
0.000529009
0.000530774
0.000532279
0.00053351
0.00053445
0.000535086
0.000535413
4.84361e-09
2.40756e-08
4.68962e-07
3.63912e-06
1.42e-05
3.48358e-05
6.44528e-05
0.000100847
0.000141748
0.000184941
0.000228429
0.000270596
0.00031025
0.000346603
0.000379206
0.000407875
0.000432629
0.000453633
0.000471159
0.00048555
0.000497192
0.000506485
0.000513827
0.000519597
0.000524143
0.000527774
0.000530756
0.000533312
0.000535621
0.000537824
0.000540029
0.000542314
0.000544725
0.000547295
0.000550038
0.000552955
0.000556037
0.000559269
0.000562631
0.000566098
0.000569645
0.000573243
0.000576867
0.000580488
0.000584078
0.000587608
0.000591057
0.000594396
0.000597601
0.000600649
0.000603513
0.000606178
0.000608624
0.00061082
0.000612751
0.000614402
0.000615753
0.000616787
0.000617486
0.000617845
5.42009e-09
2.69798e-08
5.23374e-07
4.00822e-06
1.53238e-05
3.69185e-05
6.76214e-05
0.000105514
0.000148687
0.000195166
0.000243016
0.000290513
0.000336258
0.000379206
0.000418646
0.000454155
0.000485543
0.000512805
0.00053608
0.000555615
0.000571738
0.000584825
0.000595279
0.000603511
0.000609921
0.000614883
0.000618738
0.000621785
0.000624283
0.000626442
0.000628434
0.000630393
0.000632413
0.000634563
0.000636888
0.00063941
0.000642136
0.000645062
0.000648173
0.000651447
0.000654856
0.000658374
0.000661967
0.000665604
0.000669251
0.000672874
0.000676443
0.000679926
0.000683291
0.000686511
0.000689553
0.000692395
0.000695013
0.000697373
0.000699453
0.000701235
0.000702697
0.000703817
0.000704575
0.000704964
5.99618e-09
2.9935e-08
5.78523e-07
4.37419e-06
1.63976e-05
3.8825e-05
7.03849e-05
0.000109399
0.000154304
0.000203415
0.000254948
0.000307174
0.000358566
0.000407875
0.000454155
0.000496743
0.000535226
0.000569399
0.000599234
0.000624842
0.000646447
0.000664359
0.000678943
0.000690605
0.000699764
0.000706838
0.000712228
0.000716306
0.000719404
0.000721813
0.00072378
0.000725507
0.000727153
0.000728839
0.000730653
0.000732653
0.000734873
0.000737328
0.000740017
0.000742928
0.000746036
0.000749316
0.000752733
0.000756252
0.000759834
0.000763439
0.000767032
0.000770573
0.000774025
0.000777352
0.000780517
0.000783491
0.000786245
0.000788735
0.00079094
0.000792834
0.000794392
0.000795587
0.000796396
0.000796813
6.57206e-09
3.29591e-08
6.34817e-07
4.74046e-06
1.74389e-05
4.06095e-05
7.28626e-05
0.000112711
0.0001589
0.000210052
0.000264598
0.000320893
0.000377365
0.000432629
0.000485543
0.000535226
0.000581041
0.000622573
0.000659601
0.000692073
0.000720073
0.0007438
0.000763545
0.000779666
0.000792565
0.000802672
0.000810422
0.00081624
0.000820526
0.000823647
0.000825929
0.000827654
0.000829054
0.000830319
0.000831596
0.000832993
0.000834584
0.000836419
0.000838519
0.000840888
0.000843516
0.000846382
0.000849454
0.000852696
0.000856067
0.000859521
0.000863016
0.000866509
0.000869952
0.000873305
0.000876522
0.000879567
0.000882404
0.000884984
0.00088728
0.000889258
0.000890888
0.000892144
0.000892995
0.000893433
7.14857e-09
3.60683e-08
6.92598e-07
5.1097e-06
1.84606e-05
4.23132e-05
7.51468e-05
0.000115617
0.000162734
0.000215418
0.00027235
0.000332039
0.00039295
0.000453633
0.000512805
0.000569399
0.000622573
0.000671701
0.000716363
0.000756318
0.000791487
0.000821928
0.000847818
0.00086943
0.00088711
0.000901261
0.000912321
0.000920741
0.000926969
0.000931435
0.00093454
0.000936645
0.000938066
0.00093907
0.000939878
0.000940663
0.000941558
0.000942654
0.000944015
0.000945671
0.000947634
0.000949897
0.000952437
0.000955221
0.00095821
0.000961354
0.000964606
0.000967918
0.000971235
0.00097451
0.000977688
0.000980727
0.000983581
0.000986195
0.000988535
0.000990559
0.000992235
0.000993529
0.000994408
0.00099486
7.7268e-09
3.92755e-08
7.52127e-07
5.48389e-06
1.94723e-05
4.39657e-05
7.73059e-05
0.00011825
0.000166023
0.000219813
0.000278569
0.000341001
0.000405679
0.000471159
0.00053608
0.000599234
0.000659601
0.000716363
0.000768896
0.000816768
0.000859717
0.000897637
0.000930562
0.000958644
0.000982139
0.00100139
0.00101679
0.00102879
0.00103785
0.00104446
0.00104906
0.00105209
0.00105395
0.001055
0.00105553
0.00105579
0.001056
0.0010563
0.00105681
0.0010576
0.00105872
0.00106019
0.001062
0.00106413
0.00106654
0.00106919
0.00107203
0.001075
0.00107805
0.00108112
0.00108415
0.00108708
0.00108987
0.00109244
0.00109477
0.00109679
0.00109848
0.00109978
0.00110067
0.00110113
8.30789e-09
4.25911e-08
8.13597e-07
5.86433e-06
2.04803e-05
4.55877e-05
7.93893e-05
0.000120709
0.000168938
0.000223497
0.000283593
0.000348164
0.000415941
0.00048555
0.000555615
0.000624842
0.000692073
0.000756318
0.000816768
0.000872798
0.000923957
0.00096996
0.00101068
0.00104611
0.0010764
0.00110178
0.00112259
0.00113921
0.00115212
0.00116179
0.00116872
0.00117339
0.00117628
0.00117783
0.00117841
0.00117837
0.001178
0.00117752
0.00117713
0.00117695
0.00117708
0.00117757
0.00117845
0.00117971
0.00118134
0.00118329
0.00118552
0.00118797
0.00119058
0.00119329
0.00119604
0.00119874
0.00120136
0.00120381
0.00120605
0.00120801
0.00120965
0.00121093
0.00121181
0.00121226
8.89288e-09
4.60228e-08
8.77135e-07
6.25185e-06
2.14887e-05
4.71931e-05
8.14313e-05
0.000123067
0.000171612
0.000226682
0.000287716
0.000353892
0.000424133
0.000497192
0.000571738
0.000646448
0.000720073
0.000791487
0.000859717
0.000923957
0.000983569
0.00103808
0.00108719
0.00113074
0.0011687
0.00120119
0.00122844
0.00125078
0.00126859
0.00128235
0.00129256
0.00129973
0.0013044
0.00130706
0.00130819
0.00130821
0.0013075
0.00130638
0.00130512
0.00130393
0.00130295
0.00130231
0.00130207
0.00130226
0.00130288
0.00130391
0.00130531
0.00130704
0.00130902
0.00131119
0.00131349
0.00131583
0.00131815
0.00132036
0.00132242
0.00132424
0.00132579
0.00132699
0.00132783
0.00132826
9.48269e-09
4.95759e-08
9.42826e-07
6.64685e-06
2.25e-05
4.87907e-05
8.34546e-05
0.000125374
0.000174146
0.000229536
0.00029119
0.00035851
0.000430636
0.000506485
0.000584825
0.000664359
0.0007438
0.000821928
0.000897637
0.00096996
0.00103808
0.00110136
0.00115928
0.00121153
0.00125792
0.00129841
0.00133309
0.00136218
0.00138598
0.00140492
0.00141946
0.00143012
0.00143745
0.00144201
0.00144433
0.00144493
0.00144427
0.00144277
0.00144079
0.00143862
0.00143651
0.00143463
0.00143311
0.00143203
0.00143143
0.00143131
0.00143165
0.00143242
0.00143355
0.00143498
0.00143664
0.00143844
0.00144031
0.00144216
0.00144393
0.00144552
0.00144689
0.00144798
0.00144873
0.00144912
1.0078e-08
5.32538e-08
1.0107e-06
7.04942e-06
2.35153e-05
5.03855e-05
8.54732e-05
0.000127665
0.000176612
0.000232192
0.000294219
0.000362306
0.000435806
0.000513828
0.00059528
0.000678943
0.000763545
0.000847819
0.000930562
0.00101068
0.00108719
0.00115928
0.00122628
0.00128766
0.00134308
0.00139231
0.0014353
0.00147212
0.00150298
0.0015282
0.00154817
0.00156338
0.00157439
0.00158176
0.00158608
0.00158793
0.00158787
0.0015864
0.00158397
0.001581
0.0015778
0.00157465
0.00157174
0.00156923
0.0015672
0.00156571
0.00156474
0.00156431
0.00156435
0.00156481
0.00156562
0.00156669
0.00156793
0.00156927
0.0015706
0.00157187
0.00157298
0.00157387
0.0015745
0.00157483
1.06794e-08
5.70581e-08
1.08076e-06
7.45936e-06
2.45346e-05
5.19799e-05
8.74951e-05
0.00012996
0.000179058
0.000234744
0.000296968
0.00036552
0.000439961
0.000519598
0.000603512
0.000690605
0.000779666
0.00086943
0.000958644
0.00104611
0.00113074
0.00121153
0.00128766
0.00135843
0.0014233
0.00148187
0.00153393
0.00157937
0.00161828
0.00165083
0.00167734
0.00169823
0.001714
0.00172521
0.00173248
0.00173642
0.00173765
0.00173678
0.00173434
0.00173085
0.00172674
0.00172237
0.00171804
0.00171399
0.00171036
0.00170728
0.00170478
0.00170288
0.00170158
0.00170081
0.00170054
0.00170065
0.00170107
0.00170171
0.00170247
0.00170326
0.00170401
0.00170463
0.00170509
0.00170533
1.12871e-08
6.09889e-08
1.15298e-06
7.87631e-06
2.55574e-05
5.35745e-05
8.95239e-05
0.000132273
0.000181518
0.000237264
0.000299561
0.000368351
0.000443376
0.000524144
0.000609921
0.000699764
0.000792566
0.00088711
0.000982139
0.0010764
0.0011687
0.00125792
0.00134308
0.0014233
0.00149786
0.00156621
0.00162792
0.00168275
0.00173058
0.00177147
0.0018056
0.00183328
0.00185495
0.00187111
0.00188238
0.00188937
0.00189276
0.0018932
0.00189134
0.00188778
0.00188306
0.00187766
0.00187197
0.00186633
0.001861
0.00185615
0.00185189
0.00184829
0.00184536
0.00184311
0.00184149
0.0018404
0.00183977
0.0018395
0.00183951
0.00183969
0.00183995
0.00184021
0.00184043
0.00184055
1.19014e-08
6.50449e-08
1.22729e-06
8.29976e-06
2.65828e-05
5.51685e-05
9.156e-05
0.000134609
0.00018401
0.000239797
0.000302092
0.000370953
0.000446284
0.000527775
0.000614883
0.000706839
0.000802673
0.000901262
0.00100139
0.00110178
0.00120119
0.00129841
0.00139231
0.00148187
0.00156621
0.00164458
0.00171638
0.00178118
0.0018387
0.00188882
0.00193156
0.00196712
0.00199582
0.00201808
0.00203447
0.00204558
0.00205211
0.00205475
0.00205421
0.00205118
0.00204631
0.00204018
0.00203332
0.00202617
0.00201908
0.00201234
0.00200613
0.0020006
0.0019958
0.00199179
0.00198854
0.00198598
0.00198405
0.00198265
0.0019817
0.00198109
0.00198073
0.00198052
0.00198044
0.0019804
1.25221e-08
6.92236e-08
1.30363e-06
8.72911e-06
2.76096e-05
5.67605e-05
9.36022e-05
0.000136968
0.000186544
0.000242375
0.000304628
0.000373449
0.000448873
0.000530756
0.000618738
0.000712229
0.000810423
0.000912322
0.00101679
0.00112259
0.00122844
0.00133309
0.0014353
0.00153393
0.00162793
0.00171638
0.00179853
0.00187373
0.00194153
0.00200163
0.00205389
0.00209833
0.00213514
0.00216465
0.00218732
0.0022037
0.00221445
0.00222028
0.00222195
0.00222021
0.00221581
0.00220943
0.00220171
0.00219323
0.00218445
0.00217578
0.00216749
0.00215982
0.00215291
0.00214687
0.00214172
0.00213741
0.0021339
0.00213112
0.00212899
0.00212739
0.00212625
0.00212546
0.00212498
0.00212474
1.31491e-08
7.35213e-08
1.38188e-06
9.1636e-06
2.86361e-05
5.83483e-05
9.56476e-05
0.00013935
0.000189124
0.000245015
0.000307212
0.000375926
0.000451294
0.000533312
0.000621786
0.000716306
0.00081624
0.000920742
0.00102879
0.00113922
0.00125078
0.00136218
0.00147213
0.00157937
0.00168275
0.00178118
0.00187373
0.00195958
0.00203809
0.00210877
0.0021713
0.00222552
0.00227147
0.00230932
0.00233941
0.00236223
0.00237836
0.00238849
0.00239338
0.00239384
0.00239066
0.00238465
0.00237655
0.00236706
0.00235678
0.00234622
0.0023358
0.00232586
0.00231664
0.00230831
0.00230098
0.00229462
0.00228925
0.00228483
0.00228126
0.00227848
0.00227638
0.00227485
0.00227388
0.0022734
1.37821e-08
7.79334e-08
1.46195e-06
9.60246e-06
2.96608e-05
5.99295e-05
9.76927e-05
0.000141749
0.000191748
0.000247722
0.000309872
0.000378447
0.00045366
0.000535621
0.000624283
0.000719404
0.000820526
0.00092697
0.00103785
0.00115212
0.00126859
0.00138599
0.00150299
0.00161828
0.00173058
0.0018387
0.00194153
0.00203809
0.00212756
0.00220924
0.00228263
0.00234739
0.00240336
0.00245057
0.0024892
0.00251961
0.00254229
0.00255788
0.00256711
0.00257078
0.00256975
0.00256489
0.00255703
0.002547
0.00253554
0.00252328
0.00251078
0.0024985
0.00248681
0.002476
0.00246621
0.00245752
0.00245001
0.00244366
0.0024384
0.00243418
0.00243093
0.00242853
0.00242697
0.00242619
1.44206e-08
8.24544e-08
1.5437e-06
1.00449e-05
3.0682e-05
6.15017e-05
9.97334e-05
0.00014416
0.00019441
0.000250497
0.00031262
0.00038105
0.000456052
0.000537825
0.000626443
0.000721814
0.000823648
0.000931436
0.00104446
0.00116179
0.00128235
0.00140492
0.0015282
0.00165083
0.00177147
0.00188882
0.00200163
0.00210877
0.00220924
0.00230216
0.00238683
0.00246272
0.00252948
0.00258694
0.00263512
0.00267423
0.00270463
0.00272686
0.00274159
0.00274961
0.00275175
0.00274895
0.00274212
0.00273218
0.00272
0.00270635
0.00269193
0.00267737
0.00266315
0.00264968
0.00263722
0.00262594
0.00261601
0.00260742
0.0026002
0.00259429
0.00258968
0.00258625
0.00258399
0.00258286
1.5064e-08
8.70776e-08
1.62698e-06
1.049e-05
3.1698e-05
6.30624e-05
0.000101766
0.000146577
0.000197103
0.000253337
0.000315464
0.000383762
0.00045853
0.000540031
0.000628436
0.000723782
0.000825931
0.000934542
0.00104906
0.00116872
0.00129256
0.00141946
0.00154817
0.00167734
0.0018056
0.00193157
0.00205389
0.0021713
0.00228263
0.00238683
0.00248302
0.00257045
0.00264857
0.00271703
0.00277566
0.00282448
0.00286371
0.00289375
0.00291518
0.00292869
0.00293514
0.00293542
0.00293053
0.00292146
0.00290918
0.0028946
0.00287858
0.00286188
0.00284515
0.00282894
0.00281364
0.00279955
0.00278691
0.00277581
0.00276635
0.0027585
0.0027523
0.00274765
0.00274458
0.00274303
1.57116e-08
9.17958e-08
1.71164e-06
1.09369e-05
3.27072e-05
6.4609e-05
0.000103786
0.000148995
0.000199821
0.000256233
0.000318399
0.000386592
0.00046113
0.000542315
0.000630394
0.000725509
0.000827656
0.000936647
0.00105209
0.00117339
0.00129974
0.00143012
0.00156338
0.00169823
0.00183328
0.00196712
0.00209833
0.00222552
0.00234739
0.00246272
0.00257045
0.00266963
0.00275953
0.00283957
0.00290939
0.00296881
0.00301788
0.00305683
0.00308611
0.00310632
0.00311823
0.00312272
0.0031208
0.0031135
0.0031019
0.00308701
0.00306982
0.00305127
0.00303218
0.00301324
0.002995
0.00297793
0.00296234
0.00294849
0.00293648
0.00292644
0.00291842
0.00291236
0.00290836
0.00290631
1.63625e-08
9.66002e-08
1.79751e-06
1.13846e-05
3.37077e-05
6.61386e-05
0.000105789
0.000151405
0.000202552
0.000259173
0.000321416
0.000389541
0.000463868
0.000544726
0.000632414
0.000727155
0.000829057
0.000938068
0.00105396
0.00117629
0.00130441
0.00143746
0.00157439
0.001714
0.00185495
0.00199582
0.00213515
0.00227147
0.00240337
0.00252948
0.00264858
0.00275953
0.0028614
0.00295342
0.00303499
0.00310575
0.00316554
0.00321442
0.00325265
0.00328071
0.00329926
0.00330914
0.0033113
0.00330679
0.00329676
0.00328232
0.00326458
0.00324463
0.00322344
0.00320189
0.00318072
0.00316056
0.00314187
0.003125
0.00311023
0.00309772
0.00308764
0.00308001
0.00307492
0.00307231
1.70159e-08
1.01482e-07
1.8844e-06
1.18323e-05
3.46978e-05
6.76489e-05
0.00010777
0.000153802
0.000205288
0.000262148
0.000324505
0.000392603
0.000466753
0.000547297
0.000634565
0.000728841
0.000830322
0.000939073
0.001055
0.00117783
0.00130707
0.00144201
0.00158176
0.00172522
0.00187112
0.00201809
0.00216466
0.00230932
0.00245058
0.00258695
0.00271704
0.00283958
0.00295342
0.00305759
0.0031513
0.00323395
0.00330519
0.00336485
0.00341304
0.00345004
0.0034764
0.00349283
0.00350022
0.00349962
0.00349217
0.00347906
0.00346152
0.00344075
0.00341789
0.003394
0.00337002
0.00334675
0.00332483
0.00330478
0.00328701
0.00327183
0.00325948
0.00325008
0.00324376
0.00324052
1.76706e-08
1.0643e-07
1.97211e-06
1.22788e-05
3.56759e-05
6.91373e-05
0.000109727
0.000156179
0.00020802
0.000265145
0.000327653
0.000395765
0.000469781
0.00055004
0.00063689
0.000730656
0.000831599
0.000939882
0.00105553
0.00117841
0.0013082
0.00144434
0.00158609
0.00173248
0.00188238
0.00203447
0.00218733
0.00233942
0.00248921
0.00263513
0.00277567
0.0029094
0.003035
0.0031513
0.00325731
0.00335222
0.00343544
0.0035066
0.0035656
0.00361254
0.00364777
0.00367189
0.00368568
0.00369013
0.00368635
0.00367558
0.00365909
0.00363823
0.00361426
0.00358844
0.00356189
0.0035356
0.00351044
0.00348708
0.00346618
0.00344809
0.00343326
0.00342192
0.00341423
0.00341031
1.83254e-08
1.11434e-07
2.06045e-06
1.27233e-05
3.66403e-05
7.06015e-05
0.000111655
0.000158531
0.000210739
0.000268152
0.000330845
0.000399015
0.000472942
0.000552957
0.000639413
0.000732656
0.000832997
0.000940668
0.0010558
0.00117838
0.00130822
0.00144494
0.00158794
0.00173643
0.00188938
0.00204559
0.00220371
0.00236224
0.00251962
0.00267424
0.00282449
0.00296882
0.00310576
0.00323396
0.00335222
0.00345953
0.00355507
0.00363826
0.00370875
0.00376646
0.00381155
0.00384442
0.00386574
0.00387637
0.0038774
0.00387002
0.00385557
0.00383546
0.0038111
0.00378388
0.00375512
0.00372605
0.00369772
0.00367104
0.00364688
0.00362576
0.00360828
0.00359481
0.00358563
0.00358095
1.89792e-08
1.16481e-07
2.14918e-06
1.31646e-05
3.75893e-05
7.20391e-05
0.000113551
0.000160851
0.000213436
0.000271158
0.000334066
0.000402334
0.000476221
0.00055604
0.00064214
0.000734877
0.000834589
0.000941563
0.00105601
0.00117801
0.00130751
0.00144428
0.00158788
0.00173767
0.00189277
0.00205212
0.00221446
0.00237837
0.00254231
0.00270465
0.00286373
0.0030179
0.00316556
0.0033052
0.00343545
0.00355507
0.00366306
0.00375858
0.00384108
0.00391023
0.00396598
0.00400856
0.00403844
0.00405637
0.00406331
0.00406044
0.00404908
0.00403066
0.00400672
0.00397877
0.00394832
0.00391681
0.00388551
0.0038556
0.00382813
0.0038039
0.00378365
0.00376788
0.00375714
0.00375165
1.96305e-08
1.21559e-07
2.23806e-06
1.36018e-05
3.8521e-05
7.34474e-05
0.00011541
0.000163134
0.000216103
0.00027415
0.0003373
0.000405705
0.000479597
0.000559272
0.000645066
0.000737333
0.000836424
0.000942661
0.00105631
0.00117753
0.00130639
0.00144278
0.00158641
0.00173679
0.00189322
0.00205477
0.0022203
0.00238851
0.0025579
0.00272689
0.00289378
0.00305686
0.00321444
0.00336488
0.00350662
0.00363827
0.00375859
0.00386654
0.00396132
0.00404239
0.00410945
0.00416253
0.0042019
0.00422814
0.00424208
0.00424481
0.0042376
0.0042219
0.00419928
0.00417139
0.00413988
0.00410639
0.00407246
0.00403947
0.00400878
0.00398139
0.0039583
0.00394017
0.00392773
0.0039214
2.02778e-08
1.26652e-07
2.32684e-06
1.40338e-05
3.94339e-05
7.48241e-05
0.000117228
0.000165373
0.00021873
0.000277115
0.000340532
0.000409107
0.00048305
0.000562635
0.000648177
0.000740023
0.000838525
0.000944022
0.00105682
0.00117714
0.00130513
0.0014408
0.00158399
0.00173436
0.00189136
0.00205423
0.00222198
0.0023934
0.00256713
0.00274162
0.00291521
0.00308614
0.00325268
0.00341307
0.00356563
0.00370878
0.0038411
0.00396134
0.00406846
0.00416169
0.00424051
0.00430471
0.00435434
0.00438978
0.00441171
0.00442107
0.00441909
0.00440714
0.00438682
0.00435985
0.00432802
0.00429316
0.00425701
0.00422126
0.0041875
0.00415702
0.00413106
0.00411053
0.00409636
0.00408909
2.09196e-08
1.31745e-07
2.41527e-06
1.44595e-05
4.03263e-05
7.61671e-05
0.000119004
0.000167565
0.000221312
0.000280044
0.000343746
0.000412522
0.000486558
0.000566103
0.000651452
0.000742934
0.000840896
0.00094568
0.00105761
0.00117696
0.00130394
0.00143864
0.00158102
0.00173087
0.00188781
0.00205121
0.00222025
0.00239387
0.00257081
0.00274964
0.00292873
0.00310636
0.00328075
0.00345009
0.00361258
0.00376651
0.00391027
0.00404242
0.00416171
0.00426714
0.00435794
0.00443365
0.00449412
0.0045395
0.00457027
0.00458722
0.00459146
0.00458429
0.00456727
0.00454214
0.00451082
0.00447528
0.00443748
0.00439936
0.00436278
0.00432936
0.00430058
0.00427768
0.00426176
0.00425355
2.1554e-08
1.36822e-07
2.50304e-06
1.48776e-05
4.1196e-05
7.74733e-05
0.000120732
0.000169702
0.000223838
0.000282924
0.000346928
0.00041593
0.000490096
0.000569649
0.000654862
0.000746043
0.000843525
0.000947645
0.00105873
0.00117709
0.00130297
0.00143653
0.00157783
0.00172677
0.00188309
0.00204634
0.00221585
0.0023907
0.0025698
0.0027518
0.00293518
0.00311828
0.00329932
0.00347646
0.00364783
0.00381161
0.00396604
0.00410951
0.00424056
0.00435796
0.00446073
0.00454815
0.00461983
0.00467568
0.00471598
0.00474135
0.00475274
0.0047513
0.00473856
0.00471623
0.00468628
0.00465082
0.00461202
0.00457202
0.00453298
0.00449683
0.00446538
0.00444019
0.00442255
0.00441339
2.21794e-08
1.41866e-07
2.58989e-06
1.52872e-05
4.20419e-05
7.87411e-05
0.00012241
0.000171782
0.000226303
0.000285747
0.000350063
0.000419315
0.000493643
0.000573249
0.000658381
0.000749324
0.000846392
0.00094991
0.0010602
0.00117759
0.00130233
0.00143465
0.00157468
0.00172241
0.0018777
0.00204022
0.00220947
0.0023847
0.00256494
0.002749
0.00293548
0.00312279
0.00330921
0.00349291
0.00367197
0.00384451
0.00400865
0.00416261
0.00430479
0.00443372
0.00454819
0.00464726
0.00473028
0.00479697
0.00484731
0.00488173
0.00490102
0.00490619
0.00489865
0.00488004
0.00485234
0.00481778
0.00477867
0.00473738
0.00469632
0.00465776
0.00462384
0.00459644
0.00457715
0.00456711
2.27937e-08
1.46857e-07
2.67551e-06
1.56871e-05
4.28619e-05
7.99677e-05
0.000124034
0.000173798
0.0002287
0.000288502
0.000353139
0.000422657