/*--------------------------------*- C++ -*----------------------------------*\
| =========                 |                                                 |
| \\      /  F ield         | OpenFOAM: The Open Source CFD Toolbox           |
|  \\    /   O peration     | Version:  2212                                  |
|   \\  /    A nd           | Website:  www.openfoam.com                      |
|    \\/     M anipulation  |                                                 |
\*---------------------------------------------------------------------------*/
FoamFile
{
    version     2.0;
    format      ascii;
    arch        "LSB;label=32;scalar=64";
    class       volScalarField;
    location    "1000";
    object      p;
}
// * * * * * * * * * * * * * * * * * * * * * * * * * * * * * * * * * * * * * //

dimensions      [0 2 -2 0 0 0 0];

internalField   nonuniform List<scalar> 
3600
(
-1.03534e-15
-1.03541e-15
-1.03552e-15
-1.03565e-15
-1.03582e-15
-1.03603e-15
-1.03628e-15
-1.03657e-15
-1.03689e-15
-1.03719e-15
-1.03747e-15
-1.03769e-15
-1.03785e-15
-1.03801e-15
-1.0382e-15
-1.03843e-15
-1.03869e-15
-1.03896e-15
-1.03928e-15
-1.0397e-15
-1.04006e-15
-1.04042e-15
-1.04094e-15
-1.04154e-15
-1.04237e-15
-1.04351e-15
-1.04483e-15
-1.04653e-15
-1.04879e-15
-1.05177e-15
-1.05526e-15
-1.05913e-15
-1.06354e-15
-1.06894e-15
-1.07553e-15
-1.08138e-15
-1.08811e-15
-1.0956e-15
-1.1037e-15
-1.11298e-15
-1.12355e-15
-1.13508e-15
-1.15174e-15
-1.16924e-15
-1.18546e-15
-1.20474e-15
-1.2224e-15
-1.23769e-15
-1.2474e-15
-1.25734e-15
-1.26678e-15
-1.27925e-15
-1.28706e-15
-1.2942e-15
-1.30432e-15
-1.31393e-15
-1.31291e-15
-1.31594e-15
-1.32607e-15
-1.32802e-15
-1.03527e-15
-1.03534e-15
-1.03543e-15
-1.03556e-15
-1.03572e-15
-1.03592e-15
-1.03617e-15
-1.03646e-15
-1.03678e-15
-1.03709e-15
-1.03737e-15
-1.03761e-15
-1.03777e-15
-1.03794e-15
-1.03814e-15
-1.03837e-15
-1.03866e-15
-1.03893e-15
-1.03927e-15
-1.03969e-15
-1.04007e-15
-1.04042e-15
-1.04095e-15
-1.04155e-15
-1.04237e-15
-1.04352e-15
-1.04483e-15
-1.04654e-15
-1.04878e-15
-1.05176e-15
-1.05527e-15
-1.05915e-15
-1.06354e-15
-1.06895e-15
-1.07553e-15
-1.08138e-15
-1.08812e-15
-1.09559e-15
-1.10371e-15
-1.11296e-15
-1.12354e-15
-1.13507e-15
-1.15176e-15
-1.16926e-15
-1.18548e-15
-1.20476e-15
-1.22244e-15
-1.23772e-15
-1.24743e-15
-1.25734e-15
-1.26677e-15
-1.27925e-15
-1.28709e-15
-1.2942e-15
-1.30431e-15
-1.31395e-15
-1.3129e-15
-1.31595e-15
-1.32608e-15
-1.32804e-15
-1.03515e-15
-1.03522e-15
-1.03531e-15
-1.03543e-15
-1.03558e-15
-1.03578e-15
-1.03603e-15
-1.03634e-15
-1.03666e-15
-1.03698e-15
-1.03725e-15
-1.03751e-15
-1.03767e-15
-1.03784e-15
-1.03805e-15
-1.03831e-15
-1.03863e-15
-1.0389e-15
-1.03925e-15
-1.03968e-15
-1.04009e-15
-1.04042e-15
-1.04096e-15
-1.04155e-15
-1.04238e-15
-1.04355e-15
-1.04484e-15
-1.04654e-15
-1.04877e-15
-1.05176e-15
-1.0553e-15
-1.05918e-15
-1.06352e-15
-1.06901e-15
-1.07555e-15
-1.08137e-15
-1.08814e-15
-1.09558e-15
-1.10373e-15
-1.11294e-15
-1.12354e-15
-1.13501e-15
-1.15177e-15
-1.16929e-15
-1.18549e-15
-1.20479e-15
-1.22249e-15
-1.23778e-15
-1.24746e-15
-1.25733e-15
-1.2667e-15
-1.27924e-15
-1.28712e-15
-1.29418e-15
-1.30428e-15
-1.31397e-15
-1.31287e-15
-1.31594e-15
-1.32608e-15
-1.32806e-15
-1.03498e-15
-1.03505e-15
-1.03514e-15
-1.03525e-15
-1.03541e-15
-1.03562e-15
-1.03588e-15
-1.03619e-15
-1.03652e-15
-1.03684e-15
-1.03712e-15
-1.03738e-15
-1.03758e-15
-1.03774e-15
-1.03794e-15
-1.03825e-15
-1.03855e-15
-1.03886e-15
-1.03922e-15
-1.03968e-15
-1.04012e-15
-1.04047e-15
-1.041e-15
-1.04156e-15
-1.04243e-15
-1.04358e-15
-1.04487e-15
-1.04656e-15
-1.04877e-15
-1.05176e-15
-1.05534e-15
-1.05925e-15
-1.06348e-15
-1.06911e-15
-1.07558e-15
-1.08141e-15
-1.08816e-15
-1.09556e-15
-1.10379e-15
-1.11295e-15
-1.12348e-15
-1.13491e-15
-1.15179e-15
-1.16935e-15
-1.18543e-15
-1.20482e-15
-1.22257e-15
-1.23788e-15
-1.24749e-15
-1.25734e-15
-1.2666e-15
-1.27914e-15
-1.28716e-15
-1.29415e-15
-1.30419e-15
-1.31399e-15
-1.31278e-15
-1.3159e-15
-1.32605e-15
-1.32809e-15
-1.03475e-15
-1.03483e-15
-1.03493e-15
-1.03504e-15
-1.0352e-15
-1.03542e-15
-1.0357e-15
-1.03601e-15
-1.03634e-15
-1.03665e-15
-1.03695e-15
-1.03724e-15
-1.03745e-15
-1.03761e-15
-1.03783e-15
-1.03815e-15
-1.03847e-15
-1.03881e-15
-1.03918e-15
-1.03968e-15
-1.04017e-15
-1.04058e-15
-1.04111e-15
-1.04162e-15
-1.04253e-15
-1.04366e-15
-1.04495e-15
-1.04656e-15
-1.04884e-15
-1.05182e-15
-1.05547e-15
-1.0594e-15
-1.06347e-15
-1.06921e-15
-1.07572e-15
-1.08144e-15
-1.08817e-15
-1.09553e-15
-1.10375e-15
-1.11294e-15
-1.12341e-15
-1.13483e-15
-1.15182e-15
-1.16943e-15
-1.18539e-15
-1.2049e-15
-1.22268e-15
-1.23805e-15
-1.24754e-15
-1.25735e-15
-1.26647e-15
-1.27904e-15
-1.28736e-15
-1.2941e-15
-1.30395e-15
-1.31405e-15
-1.31265e-15
-1.31595e-15
-1.32605e-15
-1.32801e-15
-1.03447e-15
-1.03455e-15
-1.03465e-15
-1.03477e-15
-1.03493e-15
-1.03517e-15
-1.03545e-15
-1.03578e-15
-1.03611e-15
-1.03641e-15
-1.03672e-15
-1.03704e-15
-1.03726e-15
-1.03745e-15
-1.03769e-15
-1.03804e-15
-1.03838e-15
-1.03874e-15
-1.03912e-15
-1.03969e-15
-1.04024e-15
-1.04069e-15
-1.04124e-15
-1.04166e-15
-1.04263e-15
-1.04374e-15
-1.04502e-15
-1.04653e-15
-1.04889e-15
-1.05191e-15
-1.05569e-15
-1.05969e-15
-1.0636e-15
-1.06933e-15
-1.07591e-15
-1.08146e-15
-1.08819e-15
-1.09549e-15
-1.10368e-15
-1.11293e-15
-1.12332e-15
-1.13455e-15
-1.15185e-15
-1.16956e-15
-1.1853e-15
-1.20505e-15
-1.22285e-15
-1.23811e-15
-1.24759e-15
-1.25737e-15
-1.26628e-15
-1.27913e-15
-1.28761e-15
-1.29401e-15
-1.30349e-15
-1.31404e-15
-1.31246e-15
-1.31597e-15
-1.32594e-15
-1.32792e-15
-1.03413e-15
-1.03422e-15
-1.03432e-15
-1.03444e-15
-1.03462e-15
-1.03486e-15
-1.03515e-15
-1.03547e-15
-1.03581e-15
-1.03614e-15
-1.03645e-15
-1.03676e-15
-1.03704e-15
-1.03724e-15
-1.0375e-15
-1.0379e-15
-1.03827e-15
-1.03867e-15
-1.03912e-15
-1.03972e-15
-1.04035e-15
-1.04082e-15
-1.04142e-15
-1.04182e-15
-1.04274e-15
-1.04384e-15
-1.0451e-15
-1.04644e-15
-1.04893e-15
-1.05202e-15
-1.05594e-15
-1.06004e-15
-1.06392e-15
-1.06945e-15
-1.07618e-15
-1.08147e-15
-1.0882e-15
-1.09544e-15
-1.10359e-15
-1.1129e-15
-1.12321e-15
-1.13442e-15
-1.15189e-15
-1.16975e-15
-1.18528e-15
-1.20513e-15
-1.22309e-15
-1.23824e-15
-1.24765e-15
-1.2574e-15
-1.26603e-15
-1.27905e-15
-1.28792e-15
-1.2939e-15
-1.30273e-15
-1.3141e-15
-1.31221e-15
-1.31616e-15
-1.32585e-15
-1.32783e-15
-1.03376e-15
-1.03385e-15
-1.03395e-15
-1.03408e-15
-1.03425e-15
-1.03451e-15
-1.03483e-15
-1.03514e-15
-1.0355e-15
-1.03586e-15
-1.03614e-15
-1.03646e-15
-1.03681e-15
-1.03695e-15
-1.03725e-15
-1.03772e-15
-1.03814e-15
-1.03857e-15
-1.03911e-15
-1.03975e-15
-1.04052e-15
-1.04096e-15
-1.04167e-15
-1.04195e-15
-1.04286e-15
-1.04395e-15
-1.0452e-15
-1.04659e-15
-1.04895e-15
-1.05241e-15
-1.05623e-15
-1.06021e-15
-1.06423e-15
-1.06956e-15
-1.07657e-15
-1.08144e-15
-1.08822e-15
-1.09536e-15
-1.10346e-15
-1.11286e-15
-1.12307e-15
-1.13451e-15
-1.15195e-15
-1.17003e-15
-1.18533e-15
-1.20545e-15
-1.22341e-15
-1.23847e-15
-1.24773e-15
-1.25745e-15
-1.2657e-15
-1.279e-15
-1.28832e-15
-1.29374e-15
-1.30229e-15
-1.31425e-15
-1.31187e-15
-1.31634e-15
-1.32623e-15
-1.32773e-15
-1.03335e-15
-1.03344e-15
-1.03355e-15
-1.03368e-15
-1.03384e-15
-1.03408e-15
-1.03438e-15
-1.03476e-15
-1.03516e-15
-1.03547e-15
-1.03576e-15
-1.0361e-15
-1.03641e-15
-1.03654e-15
-1.03704e-15
-1.0376e-15
-1.038e-15
-1.03842e-15
-1.03907e-15
-1.03976e-15
-1.04049e-15
-1.04108e-15
-1.04178e-15
-1.04227e-15
-1.04299e-15
-1.04408e-15
-1.0453e-15
-1.0467e-15
-1.0489e-15
-1.05278e-15
-1.05665e-15
-1.06043e-15
-1.06455e-15
-1.06992e-15
-1.07657e-15
-1.08136e-15
-1.08824e-15
-1.09525e-15
-1.1033e-15
-1.1128e-15
-1.1229e-15
-1.13453e-15
-1.15241e-15
-1.1704e-15
-1.18544e-15
-1.20574e-15
-1.22416e-15
-1.23815e-15
-1.24781e-15
-1.25753e-15
-1.26527e-15
-1.27898e-15
-1.28826e-15
-1.29354e-15
-1.30175e-15
-1.31401e-15
-1.31142e-15
-1.31652e-15
-1.32673e-15
-1.32762e-15
-1.0329e-15
-1.03299e-15
-1.03309e-15
-1.03321e-15
-1.03337e-15
-1.0336e-15
-1.03385e-15
-1.03422e-15
-1.03458e-15
-1.03489e-15
-1.03531e-15
-1.0357e-15
-1.03608e-15
-1.03642e-15
-1.0369e-15
-1.03742e-15
-1.03782e-15
-1.03818e-15
-1.03904e-15
-1.03977e-15
-1.0405e-15
-1.0412e-15
-1.04196e-15
-1.04261e-15
-1.0431e-15
-1.04421e-15
-1.04541e-15
-1.04676e-15
-1.04913e-15
-1.05291e-15
-1.05707e-15
-1.06066e-15
-1.06486e-15
-1.07029e-15
-1.07667e-15
-1.08177e-15
-1.08827e-15
-1.0951e-15
-1.10308e-15
-1.11273e-15
-1.12267e-15
-1.13442e-15
-1.15251e-15
-1.17089e-15
-1.18569e-15
-1.20593e-15
-1.22508e-15
-1.23859e-15
-1.24791e-15
-1.25765e-15
-1.2654e-15
-1.27901e-15
-1.28758e-15
-1.29328e-15
-1.3011e-15
-1.31326e-15
-1.31085e-15
-1.31667e-15
-1.32679e-15
-1.32751e-15
-1.03242e-15
-1.0325e-15
-1.03261e-15
-1.03273e-15
-1.03289e-15
-1.03311e-15
-1.03337e-15
-1.03369e-15
-1.03407e-15
-1.03453e-15
-1.03487e-15
-1.03529e-15
-1.03573e-15
-1.0362e-15
-1.03674e-15
-1.03729e-15
-1.03764e-15
-1.03822e-15
-1.03905e-15
-1.0398e-15
-1.04053e-15
-1.04097e-15
-1.04218e-15
-1.04303e-15
-1.04313e-15
-1.04436e-15
-1.04553e-15
-1.04672e-15
-1.04928e-15
-1.05285e-15
-1.05736e-15
-1.0609e-15
-1.06516e-15
-1.07066e-15
-1.07687e-15
-1.0822e-15
-1.0883e-15
-1.09492e-15
-1.1028e-15
-1.11266e-15
-1.12239e-15
-1.13416e-15
-1.15215e-15
-1.17153e-15
-1.18617e-15
-1.20588e-15
-1.22538e-15
-1.23916e-15
-1.24802e-15
-1.25781e-15
-1.26547e-15
-1.27911e-15
-1.28686e-15
-1.29297e-15
-1.30034e-15
-1.31257e-15
-1.31081e-15
-1.31681e-15
-1.32694e-15
-1.32739e-15
-1.03193e-15
-1.03201e-15
-1.03211e-15
-1.03223e-15
-1.03239e-15
-1.03259e-15
-1.03283e-15
-1.03313e-15
-1.0335e-15
-1.03391e-15
-1.03435e-15
-1.03483e-15
-1.03536e-15
-1.03592e-15
-1.03665e-15
-1.03719e-15
-1.03734e-15
-1.03819e-15
-1.0391e-15
-1.03986e-15
-1.04065e-15
-1.04137e-15
-1.04254e-15
-1.04366e-15
-1.04367e-15
-1.04454e-15
-1.04566e-15
-1.0471e-15
-1.04936e-15
-1.05308e-15
-1.05744e-15
-1.06113e-15
-1.06541e-15
-1.07106e-15
-1.07715e-15
-1.08264e-15
-1.08833e-15
-1.09467e-15
-1.10243e-15
-1.11261e-15
-1.12203e-15
-1.13371e-15
-1.15281e-15
-1.17237e-15
-1.18708e-15
-1.2054e-15
-1.22581e-15
-1.23897e-15
-1.24814e-15
-1.25802e-15
-1.26546e-15
-1.2793e-15
-1.28609e-15
-1.29261e-15
-1.29946e-15
-1.31198e-15
-1.3114e-15
-1.31692e-15
-1.3265e-15
-1.32726e-15
-1.03143e-15
-1.0315e-15
-1.03158e-15
-1.03168e-15
-1.03181e-15
-1.03202e-15
-1.03225e-15
-1.03254e-15
-1.03288e-15
-1.0333e-15
-1.03378e-15
-1.03433e-15
-1.03495e-15
-1.03552e-15
-1.03636e-15
-1.03692e-15
-1.03733e-15
-1.03814e-15
-1.03924e-15
-1.03993e-15
-1.04083e-15
-1.04171e-15
-1.04297e-15
-1.04464e-15
-1.0441e-15
-1.04472e-15
-1.04577e-15
-1.04741e-15
-1.04927e-15
-1.05255e-15
-1.05727e-15
-1.06136e-15
-1.06561e-15
-1.07148e-15
-1.07752e-15
-1.08314e-15
-1.08911e-15
-1.09436e-15
-1.10195e-15
-1.11259e-15
-1.12158e-15
-1.13302e-15
-1.15355e-15
-1.17343e-15
-1.1876e-15
-1.20522e-15
-1.22646e-15
-1.23886e-15
-1.24825e-15
-1.2583e-15
-1.26536e-15
-1.27962e-15
-1.28526e-15
-1.29223e-15
-1.29924e-15
-1.31149e-15
-1.31197e-15
-1.31699e-15
-1.32612e-15
-1.32713e-15
-1.03094e-15
-1.031e-15
-1.03106e-15
-1.03114e-15
-1.03127e-15
-1.03143e-15
-1.03163e-15
-1.03189e-15
-1.03222e-15
-1.03262e-15
-1.03315e-15
-1.03379e-15
-1.03461e-15
-1.0349e-15
-1.03579e-15
-1.03638e-15
-1.03709e-15
-1.03795e-15
-1.03894e-15
-1.03995e-15
-1.04104e-15
-1.04198e-15
-1.04334e-15
-1.04538e-15
-1.04432e-15
-1.04483e-15
-1.0458e-15
-1.04704e-15
-1.049e-15
-1.05207e-15
-1.05693e-15
-1.0616e-15
-1.0657e-15
-1.07196e-15
-1.07797e-15
-1.08368e-15
-1.09002e-15
-1.09549e-15
-1.10281e-15
-1.11268e-15
-1.12101e-15
-1.13328e-15
-1.15313e-15
-1.17478e-15
-1.18791e-15
-1.20514e-15
-1.22739e-15
-1.23881e-15
-1.24837e-15
-1.25867e-15
-1.26513e-15
-1.28011e-15
-1.28435e-15
-1.29181e-15
-1.29892e-15
-1.30942e-15
-1.31082e-15
-1.31701e-15
-1.32582e-15
-1.32701e-15
-1.03043e-15
-1.03048e-15
-1.03054e-15
-1.03061e-15
-1.03068e-15
-1.0308e-15
-1.03094e-15
-1.03116e-15
-1.03148e-15
-1.03181e-15
-1.03241e-15
-1.03307e-15
-1.03388e-15
-1.03465e-15
-1.03529e-15
-1.03592e-15
-1.03677e-15
-1.03768e-15
-1.03864e-15
-1.03995e-15
-1.04136e-15
-1.04215e-15
-1.04355e-15
-1.04507e-15
-1.04414e-15
-1.04485e-15
-1.0458e-15
-1.04651e-15
-1.04854e-15
-1.05266e-15
-1.05662e-15
-1.06197e-15
-1.06561e-15
-1.07253e-15
-1.07851e-15
-1.08424e-15
-1.09108e-15
-1.09662e-15
-1.10361e-15
-1.11286e-15
-1.12173e-15
-1.13469e-15
-1.15401e-15
-1.17394e-15
-1.18823e-15
-1.20483e-15
-1.22869e-15
-1.23882e-15
-1.24849e-15
-1.25915e-15
-1.2647e-15
-1.27885e-15
-1.28332e-15
-1.29138e-15
-1.29854e-15
-1.3092e-15
-1.31133e-15
-1.317e-15
-1.32562e-15
-1.32689e-15
-1.02986e-15
-1.02989e-15
-1.02992e-15
-1.02997e-15
-1.03003e-15
-1.03014e-15
-1.03026e-15
-1.03046e-15
-1.03078e-15
-1.03111e-15
-1.03174e-15
-1.03243e-15
-1.03314e-15
-1.03403e-15
-1.03475e-15
-1.03543e-15
-1.03637e-15
-1.03747e-15
-1.03874e-15
-1.03984e-15
-1.04138e-15
-1.04227e-15
-1.04327e-15
-1.04435e-15
-1.04387e-15
-1.04446e-15
-1.04543e-15
-1.0468e-15
-1.04868e-15
-1.05323e-15
-1.05628e-15
-1.06237e-15
-1.0657e-15
-1.07291e-15
-1.07845e-15
-1.08521e-15
-1.09179e-15
-1.09797e-15
-1.10474e-15
-1.1135e-15
-1.12188e-15
-1.13605e-15
-1.1552e-15
-1.17352e-15
-1.18794e-15
-1.20485e-15
-1.22986e-15
-1.23856e-15
-1.24885e-15
-1.25896e-15
-1.26535e-15
-1.27903e-15
-1.28185e-15
-1.29103e-15
-1.29896e-15
-1.30808e-15
-1.31154e-15
-1.31693e-15
-1.32573e-15
-1.3265e-15
-1.02929e-15
-1.02931e-15
-1.02933e-15
-1.02935e-15
-1.02938e-15
-1.02947e-15
-1.02967e-15
-1.02988e-15
-1.03015e-15
-1.03049e-15
-1.031e-15
-1.03162e-15
-1.03232e-15
-1.03314e-15
-1.03402e-15
-1.03483e-15
-1.03591e-15
-1.03709e-15
-1.03835e-15
-1.0396e-15
-1.04097e-15
-1.04217e-15
-1.04348e-15
-1.04424e-15
-1.04391e-15
-1.04433e-15
-1.04539e-15
-1.04763e-15
-1.04894e-15
-1.05274e-15
-1.05523e-15
-1.06211e-15
-1.06604e-15
-1.07272e-15
-1.07903e-15
-1.08583e-15
-1.09321e-15
-1.09916e-15
-1.10543e-15
-1.11381e-15
-1.12219e-15
-1.13716e-15
-1.15629e-15
-1.17304e-15
-1.18703e-15
-1.20507e-15
-1.23241e-15
-1.23983e-15
-1.24898e-15
-1.25976e-15
-1.2668e-15
-1.27813e-15
-1.28046e-15
-1.2906e-15
-1.30055e-15
-1.30605e-15
-1.31201e-15
-1.3168e-15
-1.32579e-15
-1.32641e-15
-1.02876e-15
-1.02878e-15
-1.02879e-15
-1.02885e-15
-1.02891e-15
-1.02899e-15
-1.02911e-15
-1.02926e-15
-1.02942e-15
-1.02958e-15
-1.03016e-15
-1.03074e-15
-1.03139e-15
-1.03224e-15
-1.03323e-15
-1.03415e-15
-1.03538e-15
-1.03669e-15
-1.03798e-15
-1.03931e-15
-1.04069e-15
-1.04204e-15
-1.044e-15
-1.0446e-15
-1.04367e-15
-1.04399e-15
-1.04502e-15
-1.0468e-15
-1.04865e-15
-1.05216e-15
-1.05525e-15
-1.06087e-15
-1.06603e-15
-1.0726e-15
-1.07964e-15
-1.08646e-15
-1.09489e-15
-1.10042e-15
-1.10602e-15
-1.11417e-15
-1.12211e-15
-1.13813e-15
-1.15762e-15
-1.1727e-15
-1.18485e-15
-1.20597e-15
-1.23314e-15
-1.24111e-15
-1.24907e-15
-1.26074e-15
-1.26821e-15
-1.27744e-15
-1.2788e-15
-1.29016e-15
-1.30011e-15
-1.30391e-15
-1.31253e-15
-1.31657e-15
-1.32603e-15
-1.32632e-15
-1.0282e-15
-1.02822e-15
-1.02825e-15
-1.02829e-15
-1.02834e-15
-1.02842e-15
-1.02852e-15
-1.02862e-15
-1.02875e-15
-1.02889e-15
-1.02951e-15
-1.02981e-15
-1.03017e-15
-1.03121e-15
-1.03238e-15
-1.03337e-15
-1.03483e-15
-1.03636e-15
-1.03762e-15
-1.03903e-15
-1.04046e-15
-1.04156e-15
-1.04226e-15
-1.04286e-15
-1.04286e-15
-1.04335e-15
-1.04439e-15
-1.04592e-15
-1.04791e-15
-1.05196e-15
-1.05623e-15
-1.05968e-15
-1.06583e-15
-1.07245e-15
-1.08036e-15
-1.08699e-15
-1.09468e-15
-1.10179e-15
-1.10645e-15
-1.1146e-15
-1.12147e-15
-1.13897e-15
-1.15935e-15
-1.17255e-15
-1.18358e-15
-1.2083e-15
-1.23188e-15
-1.24248e-15
-1.24904e-15
-1.26193e-15
-1.26964e-15
-1.27949e-15
-1.27674e-15
-1.28974e-15
-1.29984e-15
-1.30153e-15
-1.31096e-15
-1.31619e-15
-1.32433e-15
-1.32624e-15
-1.02755e-15
-1.02756e-15
-1.02759e-15
-1.02762e-15
-1.02768e-15
-1.02777e-15
-1.02794e-15
-1.02796e-15
-1.02805e-15
-1.02821e-15
-1.0285e-15
-1.02877e-15
-1.02896e-15
-1.03007e-15
-1.03111e-15
-1.03281e-15
-1.03429e-15
-1.03645e-15
-1.03717e-15
-1.03879e-15
-1.04055e-15
-1.04135e-15
-1.0405e-15
-1.04132e-15
-1.04176e-15
-1.04244e-15
-1.04355e-15
-1.04484e-15
-1.04655e-15
-1.05051e-15
-1.05497e-15
-1.05787e-15
-1.06557e-15
-1.07213e-15
-1.08137e-15
-1.08743e-15
-1.09458e-15
-1.10118e-15
-1.10656e-15
-1.1152e-15
-1.12393e-15
-1.13969e-15
-1.16173e-15
-1.17257e-15
-1.18262e-15
-1.20976e-15
-1.23126e-15
-1.24115e-15
-1.24873e-15
-1.26341e-15
-1.27106e-15
-1.27949e-15
-1.2766e-15
-1.29191e-15
-1.29982e-15
-1.29882e-15
-1.30945e-15
-1.31571e-15
-1.32274e-15
-1.3262e-15
-1.02676e-15
-1.02677e-15
-1.02678e-15
-1.02677e-15
-1.02678e-15
-1.02678e-15
-1.02688e-15
-1.02697e-15
-1.02707e-15
-1.02715e-15
-1.02758e-15
-1.02803e-15
-1.02856e-15
-1.02926e-15
-1.02992e-15
-1.03165e-15
-1.03292e-15
-1.03367e-15
-1.03573e-15
-1.03848e-15
-1.04158e-15
-1.04246e-15
-1.04095e-15
-1.03995e-15
-1.04048e-15
-1.04129e-15
-1.0426e-15
-1.04355e-15
-1.04435e-15
-1.0479e-15
-1.055e-15
-1.05848e-15
-1.06561e-15
-1.07132e-15
-1.08306e-15
-1.08779e-15
-1.09459e-15
-1.10074e-15
-1.10633e-15
-1.11587e-15
-1.1259e-15
-1.13996e-15
-1.16137e-15
-1.17267e-15
-1.18515e-15
-1.21058e-15
-1.23132e-15
-1.2399e-15
-1.24807e-15
-1.26241e-15
-1.27251e-15
-1.27997e-15
-1.27572e-15
-1.29186e-15
-1.30013e-15
-1.29559e-15
-1.30802e-15
-1.3152e-15
-1.32119e-15
-1.32628e-15
-1.02576e-15
-1.02576e-15
-1.02576e-15
-1.02577e-15
-1.02579e-15
-1.02583e-15
-1.0259e-15
-1.026e-15
-1.02614e-15
-1.02637e-15
-1.02672e-15
-1.02719e-15
-1.02783e-15
-1.02869e-15
-1.0299e-15
-1.03123e-15
-1.0325e-15
-1.03411e-15
-1.03594e-15
-1.03796e-15
-1.04079e-15
-1.04176e-15
-1.04099e-15
-1.03738e-15
-1.03895e-15
-1.03981e-15
-1.04178e-15
-1.04227e-15
-1.04581e-15
-1.04794e-15
-1.05671e-15
-1.05818e-15
-1.06606e-15
-1.0726e-15
-1.08315e-15
-1.08782e-15
-1.09474e-15
-1.10038e-15
-1.10561e-15
-1.11656e-15
-1.12758e-15
-1.13958e-15
-1.16197e-15
-1.17271e-15
-1.18838e-15
-1.21037e-15
-1.23222e-15
-1.24189e-15
-1.24705e-15
-1.26161e-15
-1.27418e-15
-1.28104e-15
-1.27944e-15
-1.29217e-15
-1.30098e-15
-1.29673e-15
-1.30675e-15
-1.31471e-15
-1.31961e-15
-1.32653e-15
-1.02457e-15
-1.02458e-15
-1.0246e-15
-1.02459e-15
-1.0246e-15
-1.02464e-15
-1.02472e-15
-1.02486e-15
-1.02485e-15
-1.02516e-15
-1.0255e-15
-1.02595e-15
-1.02658e-15
-1.02742e-15
-1.02849e-15
-1.02945e-15
-1.03161e-15
-1.0344e-15
-1.03606e-15
-1.03654e-15
-1.03773e-15
-1.03855e-15
-1.03954e-15
-1.03784e-15
-1.03788e-15
-1.03758e-15
-1.04178e-15
-1.04494e-15
-1.04803e-15
-1.05031e-15
-1.05666e-15
-1.06003e-15
-1.06701e-15
-1.07304e-15
-1.08127e-15
-1.08746e-15
-1.09519e-15
-1.10011e-15
-1.10403e-15
-1.11734e-15
-1.12927e-15
-1.14251e-15
-1.16388e-15
-1.17234e-15
-1.18977e-15
-1.21166e-15
-1.23412e-15
-1.24429e-15
-1.2454e-15
-1.26092e-15
-1.27626e-15
-1.28261e-15
-1.28257e-15
-1.29269e-15
-1.30248e-15
-1.29729e-15
-1.30552e-15
-1.31433e-15
-1.3179e-15
-1.32707e-15
-1.02302e-15
-1.02302e-15
-1.02303e-15
-1.02304e-15
-1.02306e-15
-1.02308e-15
-1.02311e-15
-1.02314e-15
-1.02337e-15
-1.02393e-15
-1.024e-15
-1.02408e-15
-1.02486e-15
-1.02564e-15
-1.02742e-15
-1.02824e-15
-1.02975e-15
-1.03143e-15
-1.03291e-15
-1.03407e-15
-1.03506e-15
-1.03505e-15
-1.03657e-15
-1.03672e-15
-1.03702e-15
-1.03881e-15
-1.04255e-15
-1.0479e-15
-1.05083e-15
-1.05242e-15
-1.05662e-15
-1.06078e-15
-1.0684e-15
-1.07295e-15
-1.07989e-15
-1.08677e-15
-1.0963e-15
-1.10004e-15
-1.10635e-15
-1.11844e-15
-1.13094e-15
-1.14463e-15
-1.16304e-15
-1.17523e-15
-1.19473e-15
-1.21315e-15
-1.23352e-15
-1.24399e-15
-1.24263e-15
-1.26026e-15
-1.27902e-15
-1.28463e-15
-1.28524e-15
-1.29326e-15
-1.29912e-15
-1.29719e-15
-1.30423e-15
-1.31419e-15
-1.31587e-15
-1.32805e-15
-1.02129e-15
-1.0213e-15
-1.02131e-15
-1.02133e-15
-1.02136e-15
-1.02142e-15
-1.0215e-15
-1.02162e-15
-1.02182e-15
-1.02209e-15
-1.02241e-15
-1.02282e-15
-1.0234e-15
-1.02413e-15
-1.02502e-15
-1.02657e-15
-1.02768e-15
-1.029e-15
-1.0304e-15
-1.03189e-15
-1.03377e-15
-1.03411e-15
-1.03511e-15
-1.03538e-15
-1.03481e-15
-1.03865e-15
-1.04237e-15
-1.04652e-15
-1.04887e-15
-1.05102e-15
-1.05395e-15
-1.06029e-15
-1.06676e-15
-1.07215e-15
-1.07853e-15
-1.08544e-15
-1.09232e-15
-1.09947e-15
-1.10773e-15
-1.1196e-15
-1.13257e-15
-1.14624e-15
-1.16306e-15
-1.17742e-15
-1.19786e-15
-1.21671e-15
-1.23388e-15
-1.24475e-15
-1.24526e-15
-1.25951e-15
-1.27629e-15
-1.28708e-15
-1.28754e-15
-1.29399e-15
-1.29612e-15
-1.29657e-15
-1.3084e-15
-1.31449e-15
-1.31872e-15
-1.32967e-15
-1.01931e-15
-1.01932e-15
-1.01934e-15
-1.01938e-15
-1.0194e-15
-1.01944e-15
-1.01951e-15
-1.01963e-15
-1.01982e-15
-1.02008e-15
-1.02044e-15
-1.0209e-15
-1.02149e-15
-1.02225e-15
-1.02322e-15
-1.02397e-15
-1.02522e-15
-1.02651e-15
-1.02781e-15
-1.02903e-15
-1.02985e-15
-1.0322e-15
-1.03456e-15
-1.03495e-15
-1.03608e-15
-1.03875e-15
-1.04198e-15
-1.04645e-15
-1.04701e-15
-1.04895e-15
-1.05491e-15
-1.05983e-15
-1.06556e-15
-1.07104e-15
-1.07701e-15
-1.08412e-15
-1.08814e-15
-1.09867e-15
-1.10848e-15
-1.12069e-15
-1.13423e-15
-1.1475e-15
-1.16353e-15
-1.17897e-15
-1.20208e-15
-1.22004e-15
-1.235e-15
-1.2466e-15
-1.24671e-15
-1.25856e-15
-1.27399e-15
-1.29044e-15
-1.28947e-15
-1.29506e-15
-1.29312e-15
-1.2952e-15
-1.31309e-15
-1.31492e-15
-1.32127e-15
-1.33198e-15
-1.01682e-15
-1.01684e-15
-1.01688e-15
-1.01695e-15
-1.01703e-15
-1.01705e-15
-1.01697e-15
-1.0171e-15
-1.01731e-15
-1.01759e-15
-1.01795e-15
-1.01841e-15
-1.01898e-15
-1.01966e-15
-1.02044e-15
-1.02175e-15
-1.02283e-15
-1.02411e-15
-1.02553e-15
-1.02704e-15
-1.02857e-15
-1.0304e-15
-1.03219e-15
-1.03356e-15
-1.03573e-15
-1.03844e-15
-1.04061e-15
-1.04283e-15
-1.04408e-15
-1.04747e-15
-1.0537e-15
-1.05904e-15
-1.06451e-15
-1.06975e-15
-1.07507e-15
-1.08384e-15
-1.08913e-15
-1.09811e-15
-1.10878e-15
-1.12164e-15
-1.13613e-15
-1.14841e-15
-1.1642e-15
-1.17948e-15
-1.2029e-15
-1.21949e-15
-1.23662e-15
-1.2419e-15
-1.247e-15
-1.25725e-15
-1.27154e-15
-1.28861e-15
-1.29094e-15
-1.29677e-15
-1.29604e-15
-1.29264e-15
-1.31301e-15
-1.31506e-15
-1.32362e-15
-1.33507e-15
-1.01357e-15
-1.01359e-15
-1.01359e-15
-1.01361e-15
-1.01373e-15
-1.01377e-15
-1.01369e-15
-1.01392e-15
-1.0142e-15
-1.01455e-15
-1.01496e-15
-1.01546e-15
-1.01607e-15
-1.01678e-15
-1.01761e-15
-1.01877e-15
-1.01999e-15
-1.02146e-15
-1.0232e-15
-1.02512e-15
-1.02685e-15
-1.02876e-15
-1.03056e-15
-1.03108e-15
-1.03483e-15
-1.03889e-15
-1.03922e-15
-1.03999e-15
-1.03938e-15
-1.04566e-15
-1.05162e-15
-1.05828e-15
-1.06364e-15
-1.06847e-15
-1.07173e-15
-1.08493e-15
-1.08901e-15
-1.09713e-15
-1.10859e-15
-1.12234e-15
-1.13871e-15
-1.14871e-15
-1.1651e-15
-1.17871e-15
-1.20076e-15
-1.21387e-15
-1.23134e-15
-1.24533e-15
-1.24671e-15
-1.25547e-15
-1.26875e-15
-1.28109e-15
-1.28523e-15
-1.29243e-15
-1.29275e-15
-1.28806e-15
-1.30814e-15
-1.31471e-15
-1.32584e-15
-1.33908e-15
-1.00988e-15
-1.00988e-15
-1.00989e-15
-1.00992e-15
-1.00998e-15
-1.01007e-15
-1.01022e-15
-1.01044e-15
-1.01073e-15
-1.01108e-15
-1.01151e-15
-1.01204e-15
-1.01271e-15
-1.01348e-15
-1.0143e-15
-1.01492e-15
-1.01639e-15
-1.01821e-15
-1.02059e-15
-1.02395e-15
-1.02488e-15
-1.02751e-15
-1.03138e-15
-1.03325e-15
-1.03373e-15
-1.03571e-15
-1.03728e-15
-1.03843e-15
-1.04221e-15
-1.0462e-15
-1.05335e-15
-1.05847e-15
-1.06315e-15
-1.06801e-15
-1.07285e-15
-1.08151e-15
-1.08745e-15
-1.09507e-15
-1.10783e-15
-1.12248e-15
-1.14316e-15
-1.14764e-15
-1.16672e-15
-1.17634e-15
-1.19706e-15
-1.21038e-15
-1.22647e-15
-1.24214e-15
-1.24543e-15
-1.25309e-15
-1.266e-15
-1.27424e-15
-1.27902e-15
-1.28865e-15
-1.28982e-15
-1.28765e-15
-1.30432e-15
-1.31396e-15
-1.32796e-15
-1.34431e-15
-1.00533e-15
-1.00533e-15
-1.00533e-15
-1.00537e-15
-1.00547e-15
-1.00561e-15
-1.00583e-15
-1.00632e-15
-1.00676e-15
-1.0071e-15
-1.00738e-15
-1.00773e-15
-1.00902e-15
-1.01016e-15
-1.00997e-15
-1.00925e-15
-1.0116e-15
-1.0132e-15
-1.01518e-15
-1.01714e-15
-1.01853e-15
-1.02373e-15
-1.02568e-15
-1.02788e-15
-1.03019e-15
-1.03312e-15
-1.03587e-15
-1.04174e-15
-1.04514e-15
-1.04846e-15
-1.05295e-15
-1.05915e-15
-1.06265e-15
-1.06766e-15
-1.07216e-15
-1.07935e-15
-1.08519e-15
-1.09107e-15
-1.10652e-15
-1.12091e-15
-1.13965e-15
-1.15497e-15
-1.17081e-15
-1.17152e-15
-1.19429e-15
-1.2068e-15
-1.22154e-15
-1.24088e-15
-1.24347e-15
-1.24992e-15
-1.26381e-15
-1.2676e-15
-1.27203e-15
-1.2857e-15
-1.28715e-15
-1.28528e-15
-1.30111e-15
-1.31279e-15
-1.32993e-15
-1.3512e-15
-1.00011e-15
-1.00014e-15
-1.00019e-15
-1.00026e-15
-1.00034e-15
-1.00049e-15
-1.00069e-15
-1.00109e-15
-1.00149e-15
-1.00189e-15
-1.00222e-15
-1.00274e-15
-1.00372e-15
-1.00422e-15
-1.00517e-15
-1.00622e-15
-1.007e-15
-1.00753e-15
-1.00823e-15
-1.00939e-15
-1.01115e-15
-1.0139e-15
-1.01737e-15
-1.02155e-15
-1.02661e-15
-1.03281e-15
-1.03303e-15
-1.03499e-15
-1.04142e-15
-1.0445e-15
-1.04787e-15
-1.05689e-15
-1.05996e-15
-1.0697e-15
-1.07131e-15
-1.07617e-15
-1.08389e-15
-1.09198e-15
-1.104e-15
-1.11912e-15
-1.1363e-15
-1.15351e-15
-1.16406e-15
-1.17254e-15
-1.18222e-15
-1.20214e-15
-1.2167e-15
-1.23529e-15
-1.24823e-15
-1.24653e-15
-1.25637e-15
-1.26142e-15
-1.26919e-15
-1.27997e-15
-1.28504e-15
-1.27686e-15
-1.30493e-15
-1.31996e-15
-1.33101e-15
-1.34648e-15
-9.93346e-16
-9.93362e-16
-9.93396e-16
-9.93489e-16
-9.93621e-16
-9.93721e-16
-9.93878e-16
-9.94101e-16
-9.94403e-16
-9.94794e-16
-9.95295e-16
-9.95942e-16
-9.96779e-16
-9.97833e-16
-9.98035e-16
-9.98774e-16
-9.99435e-16
-1.00026e-15
-1.00126e-15
-1.00242e-15
-1.00372e-15
-1.00495e-15
-1.0095e-15
-1.01431e-15
-1.02006e-15
-1.0222e-15
-1.02431e-15
-1.02752e-15
-1.03361e-15
-1.04034e-15
-1.04553e-15
-1.05292e-15
-1.05316e-15
-1.06474e-15
-1.06698e-15
-1.07313e-15
-1.08147e-15
-1.09027e-15
-1.10206e-15
-1.11538e-15
-1.13399e-15
-1.15054e-15
-1.16103e-15
-1.17326e-15
-1.18297e-15
-1.1957e-15
-1.20974e-15
-1.22874e-15
-1.24826e-15
-1.24872e-15
-1.25644e-15
-1.26199e-15
-1.26794e-15
-1.2716e-15
-1.27696e-15
-1.28204e-15
-1.30369e-15
-1.31862e-15
-1.33216e-15
-1.33106e-15
-9.85266e-16
-9.85306e-16
-9.85356e-16
-9.85461e-16
-9.85495e-16
-9.85604e-16
-9.85811e-16
-9.85896e-16
-9.86083e-16
-9.86383e-16
-9.86805e-16
-9.87362e-16
-9.88067e-16
-9.88938e-16
-9.88868e-16
-9.89606e-16
-9.90797e-16
-9.921e-16
-9.9351e-16
-9.94909e-16
-9.96511e-16
-9.98497e-16
-1.00129e-15
-1.00508e-15
-1.01113e-15
-1.01139e-15
-1.01348e-15
-1.01545e-15
-1.02498e-15
-1.03519e-15
-1.04379e-15
-1.04287e-15
-1.04838e-15
-1.05581e-15
-1.05969e-15
-1.06869e-15
-1.07885e-15
-1.08705e-15
-1.09949e-15
-1.10934e-15
-1.13265e-15
-1.14984e-15
-1.15739e-15
-1.17489e-15
-1.17882e-15
-1.19268e-15
-1.21189e-15
-1.22193e-15
-1.24282e-15
-1.24957e-15
-1.25693e-15
-1.26252e-15
-1.26705e-15
-1.2627e-15
-1.26865e-15
-1.28499e-15
-1.30339e-15
-1.31745e-15
-1.33529e-15
-1.32883e-15
-9.74596e-16
-9.74607e-16
-9.7465e-16
-9.74701e-16
-9.74762e-16
-9.74839e-16
-9.74928e-16
-9.7526e-16
-9.75632e-16
-9.76057e-16
-9.76546e-16
-9.77113e-16
-9.7777e-16
-9.78531e-16
-9.79414e-16
-9.80103e-16
-9.81584e-16
-9.83475e-16
-9.85983e-16
-9.86548e-16
-9.87828e-16
-9.89287e-16
-9.90039e-16
-9.89663e-16
-9.94434e-16
-9.96082e-16
-1.00265e-15
-1.00821e-15
-1.01562e-15
-1.02285e-15
-1.03366e-15
-1.0391e-15
-1.04174e-15
-1.04995e-15
-1.05941e-15
-1.07405e-15
-1.07764e-15
-1.08136e-15
-1.09843e-15
-1.11292e-15
-1.1343e-15
-1.13883e-15
-1.14997e-15
-1.16857e-15
-1.17682e-15
-1.19444e-15
-1.20582e-15
-1.22257e-15
-1.24062e-15
-1.25035e-15
-1.25785e-15
-1.26331e-15
-1.26778e-15
-1.26806e-15
-1.27426e-15
-1.28774e-15
-1.3038e-15
-1.31569e-15
-1.32753e-15
-1.32561e-15
-9.63073e-16
-9.63097e-16
-9.63131e-16
-9.63181e-16
-9.63252e-16
-9.63513e-16
-9.63847e-16
-9.64277e-16
-9.6455e-16
-9.64899e-16
-9.65322e-16
-9.65814e-16
-9.66363e-16
-9.66946e-16
-9.67524e-16
-9.68067e-16
-9.6963e-16
-9.71216e-16
-9.72813e-16
-9.74294e-16
-9.78325e-16
-9.82904e-16
-9.82516e-16
-9.82677e-16
-9.86534e-16
-9.90242e-16
-9.94341e-16
-9.9758e-16
-1.00679e-15
-1.01477e-15
-1.02212e-15
-1.02449e-15
-1.02872e-15
-1.04295e-15
-1.05481e-15
-1.06701e-15
-1.07638e-15
-1.08597e-15
-1.09923e-15
-1.11314e-15
-1.12878e-15
-1.13944e-15
-1.15341e-15
-1.16615e-15
-1.17545e-15
-1.19472e-15
-1.19797e-15
-1.22298e-15
-1.24062e-15
-1.25175e-15
-1.2593e-15
-1.26435e-15
-1.26943e-15
-1.27244e-15
-1.2787e-15
-1.29015e-15
-1.30498e-15
-1.31391e-15
-1.3218e-15
-1.32197e-15
-9.50144e-16
-9.50198e-16
-9.50289e-16
-9.50406e-16
-9.50566e-16
-9.50785e-16
-9.51076e-16
-9.51447e-16
-9.51899e-16
-9.52435e-16
-9.53057e-16
-9.53757e-16
-9.54554e-16
-9.55428e-16
-9.56394e-16
-9.56716e-16
-9.57839e-16
-9.59112e-16
-9.60495e-16
-9.64649e-16
-9.66866e-16
-9.69517e-16
-9.7242e-16
-9.7563e-16
-9.79425e-16
-9.83619e-16
-9.88321e-16
-9.93778e-16
-1.00085e-15
-1.00894e-15
-1.01754e-15
-1.02193e-15
-1.03107e-15
-1.03894e-15
-1.05014e-15
-1.06265e-15
-1.07517e-15
-1.0883e-15
-1.09994e-15
-1.11259e-15
-1.12607e-15
-1.13856e-15
-1.15774e-15
-1.16524e-15
-1.17361e-15
-1.19778e-15
-1.20609e-15
-1.22587e-15
-1.24262e-15
-1.25425e-15
-1.26149e-15
-1.26545e-15
-1.27162e-15
-1.27626e-15
-1.28222e-15
-1.29199e-15
-1.30739e-15
-1.31229e-15
-1.31733e-15
-1.31826e-15
-9.35447e-16
-9.35517e-16
-9.35612e-16
-9.35753e-16
-9.35958e-16
-9.36254e-16
-9.36665e-16
-9.37214e-16
-9.37918e-16
-9.38798e-16
-9.3988e-16
-9.40503e-16
-9.42039e-16
-9.43016e-16
-9.44174e-16
-9.45237e-16
-9.44812e-16
-9.4624e-16
-9.47399e-16
-9.50576e-16
-9.53216e-16
-9.55079e-16
-9.61275e-16
-9.66696e-16
-9.71345e-16
-9.7584e-16
-9.80649e-16
-9.86559e-16
-9.93188e-16
-1.00016e-15
-1.00622e-15
-1.01226e-15
-1.02124e-15
-1.03108e-15
-1.04432e-15
-1.05859e-15
-1.07379e-15
-1.09231e-15
-1.10021e-15
-1.11175e-15
-1.12412e-15
-1.13411e-15
-1.15326e-15
-1.16399e-15
-1.17145e-15
-1.1885e-15
-1.21031e-15
-1.23009e-15
-1.24647e-15
-1.25824e-15
-1.26474e-15
-1.26601e-15
-1.27432e-15
-1.27991e-15
-1.28499e-15
-1.29266e-15
-1.31218e-15
-1.31059e-15
-1.31357e-15
-1.31462e-15
-9.17591e-16
-9.17663e-16
-9.1777e-16
-9.17961e-16
-9.18209e-16
-9.1854e-16
-9.19145e-16
-9.19902e-16
-9.20829e-16
-9.21939e-16
-9.23244e-16
-9.24747e-16
-9.26473e-16
-9.28405e-16
-9.28926e-16
-9.31776e-16
-9.34594e-16
-9.36082e-16
-9.38195e-16
-9.41073e-16
-9.44838e-16
-9.49423e-16
-9.55148e-16
-9.62011e-16
-9.64481e-16
-9.6747e-16
-9.70078e-16
-9.77902e-16
-9.85163e-16
-9.92576e-16
-9.96093e-16
-9.97679e-16
-1.01032e-15
-1.0188e-15
-1.03768e-15