/*--------------------------------*- C++ -*----------------------------------*\
| =========                 |                                                 |
| \\      /  F ield         | OpenFOAM: The Open Source CFD Toolbox           |
|  \\    /   O peration     | Version:  2212                                  |
|   \\  /    A nd           | Website:  www.openfoam.com                      |
|    \\/     M anipulation  |                                                 |
\*---------------------------------------------------------------------------*/
FoamFile
{
    version     2.0;
    format      ascii;
    arch        "LSB;label=32;scalar=64";
    class       volVectorField;
    location    "1000";
    object      U;
}
// * * * * * * * * * * * * * * * * * * * * * * * * * * * * * * * * * * * * * //

dimensions      [0 1 -1 0 0 0 0];

internalField   nonuniform List<vector> 
3600
(
(0.000921706 1.61702e-21 5.9107e-21)
(0.00262603 3.48212e-20 1.00297e-19)
(0.00434591 -2.8543e-19 1.36148e-19)
(0.00611556 -8.47896e-19 1.99104e-19)
(0.00794616 -1.78398e-18 2.68246e-19)
(0.00983344 -3.17747e-18 3.26556e-19)
(0.0117582 -5.06451e-18 3.69025e-19)
(0.013689 -7.42374e-18 3.94202e-19)
(0.0155893 -1.02053e-17 4.21888e-19)
(0.0174265 -1.32446e-17 4.51583e-19)
(0.0191777 -1.63803e-17 4.30536e-19)
(0.0208315 -1.95429e-17 4.20735e-19)
(0.0223866 -2.24404e-17 3.27997e-19)
(0.0238483 -2.48023e-17 2.46431e-19)
(0.0252258 -2.67749e-17 2.17758e-19)
(0.0265295 -2.83792e-17 1.71364e-19)
(0.0277698 -2.95994e-17 1.54405e-19)
(0.0289564 -3.02653e-17 4.37279e-20)
(0.0300975 -3.02765e-17 1.87152e-20)
(0.0312001 -3.01829e-17 6.97742e-20)
(0.0322701 -2.9912e-17 5.93541e-20)
(0.0333122 -2.89162e-17 -8.33273e-21)
(0.0343301 -2.77897e-17 1.91282e-20)
(0.0353268 -2.62028e-17 -5.94962e-20)
(0.0363046 -2.42313e-17 -3.4328e-20)
(0.0372652 -2.22546e-17 -9.32679e-21)
(0.0382099 -2.01417e-17 1.1763e-20)
(0.0391396 -1.74379e-17 -2.93961e-20)
(0.040055 -1.42464e-17 9.22762e-21)
(0.0409564 -1.15865e-17 -4.35288e-24)
(0.0418438 -8.344e-18 1.84819e-20)
(0.0427174 -4.99297e-18 -1.79518e-20)
(0.0435767 -2.79893e-18 -5.30902e-20)
(0.0444216 1.27659e-18 -4.66516e-20)
(0.0452514 4.68122e-18 3.18538e-20)
(0.0460656 6.74853e-18 -5.56685e-20)
(0.0468635 1.07558e-17 -2.00948e-20)
(0.0476442 1.34679e-17 -1.82655e-20)
(0.048407 1.59703e-17 -5.77589e-20)
(0.0491509 1.85468e-17 1.46656e-20)
(0.0498747 1.96507e-17 9.74332e-20)
(0.0505774 2.42552e-17 -1.39972e-19)
(0.0512577 2.74819e-17 -3.43758e-20)
(0.0519144 2.89176e-17 3.36827e-20)
(0.0525461 3.15179e-17 -9.17799e-20)
(0.0531514 3.5254e-17 -6.09224e-20)
(0.0537288 3.68134e-17 -1.81814e-20)
(0.0542767 3.38696e-17 -2.10865e-20)
(0.0547934 3.62861e-17 -7.31069e-20)
(0.0552772 3.42676e-17 -6.20646e-21)
(0.0557264 3.56327e-17 -1.57128e-19)
(0.0561391 3.12666e-17 1.24549e-19)
(0.0565136 2.71576e-17 -2.64679e-20)
(0.0568477 2.89177e-17 4.50018e-21)
(0.0571396 2.17839e-17 -3.84549e-20)
(0.0573874 2.01146e-17 8.66296e-20)
(0.0575892 1.50375e-17 -1.06959e-19)
(0.0577431 1.43272e-17 -1.56489e-19)
(0.0578473 9.74627e-18 1.42709e-20)
(0.0579002 4.47245e-19 7.08955e-21)
(0.00262603 -5.95894e-20 -5.53928e-20)
(0.00774475 -3.70383e-19 4.08723e-19)
(0.0129875 -1.42496e-18 8.18528e-19)
(0.0184079 -3.21138e-18 1.34075e-18)
(0.0240269 -6.00637e-18 1.9138e-18)
(0.0298267 -1.00143e-17 2.4877e-18)
(0.0357439 -1.53256e-17 2.98724e-18)
(0.0416776 -2.18535e-17 3.40327e-18)
(0.0475128 -2.9377e-17 3.58965e-18)
(0.0531487 -3.75131e-17 3.61157e-18)
(0.0585166 -4.5816e-17 3.38336e-18)
(0.0635839 -5.41168e-17 3.11373e-18)
(0.0683477 -6.1863e-17 2.56698e-18)
(0.0728256 -6.8378e-17 1.94363e-18)
(0.0770459 -7.38797e-17 1.45871e-18)
(0.0810408 -7.83746e-17 1.1107e-18)
(0.0848423 -8.17533e-17 7.2193e-19)
(0.0884794 -8.36442e-17 2.55305e-19)
(0.0919775 -8.38955e-17 -4.94909e-20)
(0.095358 -8.35242e-17 -4.71321e-20)
(0.0986386 -8.24906e-17 -1.35358e-19)
(0.101834 -7.97589e-17 -5.83247e-19)
(0.104954 -7.65747e-17 -4.71336e-19)
(0.10801 -7.22418e-17 -8.82912e-19)
(0.111008 -6.69629e-17 -8.52648e-19)
(0.113953 -6.14432e-17 -8.05586e-19)
(0.116849 -5.55397e-17 -8.93811e-19)
(0.119698 -4.83738e-17 -1.04634e-18)
(0.122504 -4.00307e-17 -9.63601e-19)
(0.125266 -3.27489e-17 -1.07251e-18)
(0.127986 -2.35407e-17 -8.67478e-19)
(0.130663 -1.4065e-17 -6.18898e-19)
(0.133296 -7.92408e-18 -1.05717e-18)
(0.135884 2.86786e-18 -8.64143e-19)
(0.138426 1.3128e-17 -7.32708e-19)
(0.14092 2.01415e-17 -8.4801e-19)
(0.143363 3.1286e-17 -7.6732e-19)
(0.145754 3.9177e-17 -5.48562e-19)
(0.14809 4.62667e-17 -4.54538e-19)
(0.150368 5.33084e-17 -2.85836e-19)
(0.152584 5.65074e-17 -8.56768e-20)
(0.154734 6.74687e-17 -9.22961e-19)
(0.156817 7.46236e-17 -5.67655e-20)
(0.158827 7.9688e-17 -2.22085e-19)
(0.16076 8.72005e-17 -5.11012e-19)
(0.162612 9.77055e-17 -4.67772e-19)
(0.164378 1.04218e-16 2.7268e-19)
(0.166055 9.93442e-17 1.27478e-19)
(0.167635 1.07726e-16 -1.87925e-20)
(0.169115 1.02076e-16 2.35056e-19)
(0.170489 1.04582e-16 -3.94628e-19)
(0.171751 9.12926e-17 5.79707e-19)
(0.172896 8.01167e-17 6.10486e-20)
(0.173918 8.37015e-17 3.59552e-19)
(0.174811 6.22933e-17 8.19034e-19)
(0.175568 5.99547e-17 3.55976e-19)
(0.176185 4.65874e-17 2.09169e-19)
(0.176656 3.96504e-17 7.20975e-20)
(0.176974 2.55201e-17 8.06131e-19)
(0.177136 1.3341e-18 4.88856e-19)
(0.00434591 -6.68312e-20 1.89238e-19)
(0.0129875 -6.68789e-19 1.41438e-18)
(0.0219293 -2.35984e-18 2.58461e-18)
(0.0312257 -5.18664e-18 4.00236e-18)
(0.0408975 -9.49991e-18 5.57475e-18)
(0.0509019 -1.55383e-17 7.09996e-18)
(0.0611128 -2.33545e-17 8.42426e-18)
(0.0713376 -3.28724e-17 9.37334e-18)
(0.0813674 -4.36982e-17 9.8829e-18)
(0.0910288 -5.53416e-17 9.87592e-18)
(0.100211 -6.71999e-17 9.16623e-18)
(0.108865 -7.88962e-17 8.24911e-18)
(0.116995 -8.98207e-17 6.97044e-18)
(0.124632 -9.90141e-17 5.45961e-18)
(0.131829 -1.0663e-16 4.15802e-18)
(0.138639 -1.12762e-16 3.1256e-18)
(0.145118 -1.17241e-16 1.80958e-18)
(0.151315 -1.19514e-16 8.26755e-19)
(0.157272 -1.19369e-16 2.55873e-20)
(0.163025 -1.18163e-16 -2.04271e-19)
(0.168604 -1.15951e-16 -5.21595e-19)
(0.174034 -1.11122e-16 -1.48025e-18)
(0.179333 -1.05299e-16 -1.61834e-18)
(0.184516 -9.77047e-17 -2.40868e-18)
(0.189596 -8.8555e-17 -2.26831e-18)
(0.194582 -7.88841e-17 -2.46821e-18)
(0.199479 -6.84698e-17 -2.38903e-18)
(0.204294 -5.60214e-17 -2.79004e-18)
(0.209028 -4.17713e-17 -2.64231e-18)
(0.213685 -2.88039e-17 -2.85044e-18)
(0.218264 -1.28974e-17 -2.8195e-18)
(0.222765 3.01644e-18 -2.06149e-18)
(0.227188 1.40738e-17 -3.36694e-18)
(0.231531 3.17653e-17 -2.48726e-18)
(0.235791 4.92406e-17 -1.87538e-18)
(0.239965 6.25101e-17 -2.24662e-18)
(0.244051 8.11359e-17 -2.29637e-18)
(0.248044 9.49469e-17 -1.71319e-18)
(0.25194 1.07389e-16 -1.33655e-18)
(0.255734 1.19911e-16 -6.69203e-19)
(0.259422 1.27451e-16 -8.60613e-19)
(0.262998 1.4561e-16 -2.10035e-18)
(0.266456 1.57196e-16 -7.76604e-19)
(0.269789 1.65555e-16 -7.53471e-19)
(0.272993 1.76379e-16 -2.10112e-18)
(0.276058 1.9127e-16 -1.42788e-18)
(0.278979 2.00323e-16 1.96091e-19)
(0.281748 1.92296e-16 1.15944e-19)
(0.284357 2.03212e-16 5.90387e-20)
(0.286798 1.92613e-16 7.01211e-19)
(0.289062 1.93527e-16 -5.80134e-19)
(0.29114 1.69898e-16 1.52333e-18)
(0.293025 1.49716e-16 4.59153e-19)
(0.294705 1.5093e-16 1.19824e-18)
(0.296172 1.14413e-16 1.732e-18)
(0.297416 1.09384e-16 1.28859e-18)
(0.298429 8.67236e-17 8.00314e-19)
(0.299202 6.95888e-17 5.97838e-19)
(0.299725 4.34662e-17 2.12702e-18)
(0.29999 4.03141e-18 1.15092e-18)
(0.00611556 -1.31177e-19 6.39846e-19)
(0.0184079 -1.17846e-18 3.0894e-18)
(0.0312257 -3.71639e-18 5.41991e-18)
(0.0446272 -7.70382e-18 8.08808e-18)
(0.0586252 -1.34973e-17 1.09618e-17)
(0.0731289 -2.13131e-17 1.375e-17)
(0.087904 -3.11433e-17 1.61551e-17)
(0.102621 -4.27343e-17 1.78381e-17)
(0.116956 -5.5661e-17 1.86315e-17)
(0.130671 -6.94042e-17 1.83981e-17)
(0.143633 -8.32229e-17 1.71503e-17)
(0.155799 -9.65703e-17 1.53003e-17)
(0.167191 -1.08925e-16 1.29723e-17)
(0.177867 -1.19279e-16 1.03186e-17)
(0.187905 -1.27497e-16 7.84702e-18)
(0.197382 -1.34047e-16 5.55647e-18)
(0.206377 -1.38524e-16 3.09818e-18)
(0.214956 -1.40208e-16 1.28664e-18)
(0.223179 -1.39049e-16 -3.34979e-19)
(0.231097 -1.36481e-16 -7.99909e-19)
(0.238749 -1.32736e-16 -1.84001e-18)
(0.246171 -1.25617e-16 -3.19431e-18)
(0.253388 -1.16909e-16 -3.68605e-18)
(0.260423 -1.05952e-16 -5.15933e-18)
(0.267293 -9.29416e-17 -5.03186e-18)
(0.27401 -7.89855e-17 -5.51997e-18)
(0.280585 -6.39267e-17 -5.29823e-18)
(0.287025 -4.63133e-17 -6.4037e-18)
(0.293336 -2.63154e-17 -5.65839e-18)
(0.299522 -7.59982e-18 -6.01431e-18)
(0.305583 1.45698e-17 -6.11343e-18)
(0.311522 3.63078e-17 -4.61511e-18)
(0.317339 5.26037e-17 -6.7164e-18)
(0.323031 7.66828e-17 -5.81846e-18)
(0.328597 1.0051e-16 -4.06106e-18)
(0.334035 1.19959e-16 -4.76005e-18)
(0.339341 1.4534e-16 -5.04377e-18)
(0.344512 1.64843e-16 -3.93814e-18)
(0.349544 1.82564e-16 -3.46273e-18)
(0.354431 2.00557e-16 -1.77966e-18)
(0.359168 2.1343e-16 -2.16075e-18)
(0.363749 2.38566e-16 -3.52556e-18)
(0.368169 2.54951e-16 -1.87765e-18)
(0.37242 2.66214e-16 -1.77766e-18)
(0.376496 2.78945e-16 -3.92763e-18)
(0.380389 2.9582e-16 -2.51754e-18)
(0.384091 3.04759e-16 1.66233e-19)
(0.387593 2.92779e-16 3.08483e-19)
(0.390888 3.02815e-16 3.31569e-19)
(0.393964 2.86923e-16 1.61922e-18)
(0.396814 2.84023e-16 2.78489e-19)
(0.399426 2.50565e-16 3.80252e-18)
(0.401792 2.21162e-16 2.1439e-18)
(0.403898 2.16967e-16 2.94543e-18)
(0.405736 1.67039e-16 3.26822e-18)
(0.407294 1.56804e-16 2.70594e-18)
(0.408561 1.25169e-16 2.605e-18)
(0.409526 9.75663e-17 2.38792e-18)
(0.41018 6.00853e-17 4.50491e-18)
(0.410511 7.65248e-18 2.1073e-18)
(0.00794616 -1.98298e-19 1.46743e-18)
(0.0240269 -1.74799e-18 5.7259e-18)
(0.0408975 -5.23612e-18 9.62606e-18)
(0.0586252 -1.05358e-17 1.38616e-17)
(0.0771825 -1.78032e-17 1.82284e-17)
(0.0963452 -2.71598e-17 2.24266e-17)
(0.115667 -3.84088e-17 2.59382e-17)
(0.134627 -5.12115e-17 2.83294e-17)
(0.152812 -6.50343e-17 2.92109e-17)
(0.169985 -7.92612e-17 2.84748e-17)
(0.18606 -9.32097e-17 2.64532e-17)
(0.201047 -1.06507e-16 2.34542e-17)
(0.215015 -1.18664e-16 1.97284e-17)
(0.228058 -1.28597e-16 1.56987e-17)
(0.240279 -1.3623e-16 1.17987e-17)
(0.25178 -1.42079e-16 8.07991e-18)
(0.262655 -1.45622e-16 4.48022e-18)
(0.272987 -1.46172e-16 1.40041e-18)
(0.282848 -1.43601e-16 -1.22256e-18)
(0.292299 -1.3955e-16 -2.11159e-18)
(0.301392 -1.34257e-16 -4.07272e-18)
(0.310169 -1.25001e-16 -6.28183e-18)
(0.318664 -1.1386e-16 -6.95293e-18)
(0.326907 -1.00112e-16 -9.11592e-18)
(0.33492 -8.38714e-17 -9.45825e-18)
(0.342721 -6.64109e-17 -9.98873e-18)
(0.350326 -4.75822e-17 -9.97107e-18)
(0.357746 -2.57e-17 -1.13568e-17)
(0.364989 -1.16198e-18 -1.0283e-17)
(0.372062 2.21279e-17 -1.05384e-17)
(0.378971 4.9066e-17 -1.04667e-17)
(0.385718 7.51077e-17 -7.97711e-18)
(0.392306 9.58505e-17 -1.10909e-17)
(0.398735 1.24796e-16 -1.06703e-17)
(0.405005 1.53239e-16 -7.3934e-18)
(0.411116 1.77603e-16 -8.72011e-18)
(0.417064 2.07978e-16 -8.7375e-18)
(0.422847 2.31878e-16 -7.03833e-18)
(0.428463 2.53808e-16 -6.59631e-18)
(0.433907 2.76232e-16 -4.03077e-18)
(0.439174 2.93903e-16 -4.11095e-18)
(0.444259 3.24252e-16 -5.6733e-18)
(0.449157 3.44651e-16 -3.27962e-18)
(0.453861 3.58189e-16 -3.36969e-18)
(0.458365 3.71552e-16 -5.66923e-18)
(0.462661 3.88414e-16 -3.17006e-18)
(0.466741 3.95674e-16 2.62199e-19)
(0.470597 3.8003e-16 3.8964e-19)
(0.47422 3.8725e-16 8.78591e-19)
(0.477601 3.66755e-16 2.93903e-18)
(0.480729 3.59164e-16 1.67784e-18)
(0.483595 3.18194e-16 7.45615e-18)
(0.486188 2.8126e-16 4.42299e-18)
(0.488496 2.70642e-16 5.3266e-18)
(0.490508 2.10773e-16 5.16237e-18)
(0.492214 1.94681e-16 4.70111e-18)
(0.4936 1.55862e-16 5.19392e-18)
(0.494656 1.19338e-16 4.87572e-18)
(0.49537 7.2841e-17 7.50353e-18)
(0.495733 1.11756e-17 3.82908e-18)
(0.00983344 -2.73452e-19 2.75234e-18)
(0.0298267 -2.35324e-18 9.52252e-18)
(0.0509019 -6.7344e-18 1.54352e-17)
(0.0731289 -1.32485e-17 2.14684e-17)
(0.0963452 -2.18803e-17 2.74572e-17)
(0.119981 -3.24164e-17 3.29458e-17)
(0.143223 -4.43967e-17 3.72855e-17)
(0.165417 -5.72866e-17 3.98353e-17)
(0.186245 -7.06501e-17 4.04221e-17)
(0.205637 -8.38936e-17 3.89747e-17)
(0.223645 -9.65781e-17 3.57389e-17)
(0.240373 -1.08461e-16 3.13601e-17)
(0.255942 -1.19038e-16 2.6335e-17)
(0.270475 -1.2751e-16 2.06756e-17)
(0.284091 -1.33744e-16 1.53684e-17)
(0.296897 -1.38231e-16 1.02171e-17)
(0.308992 -1.40457e-16 5.36996e-18)
(0.320462 -1.39703e-16 9.69916e-19)
(0.331385 -1.35714e-16 -2.51185e-18)
(0.341825 -1.30336e-16 -4.25449e-18)
(0.351839 -1.23889e-16 -7.00913e-18)
(0.361474 -1.12965e-16 -1.04632e-17)
(0.37077 -9.99731e-17 -1.14687e-17)
(0.379761 -8.43701e-17 -1.3466e-17)
(0.388474 -6.58198e-17 -1.49474e-17)
(0.396932 -4.5794e-17 -1.54215e-17)
(0.405154 -2.41978e-17 -1.57412e-17)
(0.413155 6.90035e-19 -1.69616e-17)
(0.420946 2.84203e-17 -1.62403e-17)
(0.428537 5.50973e-17 -1.57641e-17)
(0.435937 8.53143e-17 -1.60914e-17)
(0.44315 1.14143e-16 -1.30212e-17)
(0.45018 1.38217e-16 -1.57911e-17)
(0.45703 1.70661e-16 -1.61997e-17)
(0.463701 2.02141e-16 -1.20474e-17)
(0.470193 2.30093e-16 -1.37062e-17)
(0.476505 2.63899e-16 -1.30954e-17)
(0.482636 2.90976e-16 -1.07323e-17)
(0.488583 3.15988e-16 -1.01583e-17)
(0.494342 3.41715e-16 -7.12984e-18)
(0.49991 3.63361e-16 -6.70606e-18)
(0.505281 3.9737e-16 -7.65595e-18)
(0.510451 4.20864e-16 -5.09612e-18)
(0.515414 4.35973e-16 -4.92912e-18)
(0.520162 4.49224e-16 -7.11925e-18)
(0.524688 4.64974e-16 -3.8695e-18)
(0.528985 4.69827e-16 6.23054e-19)
(0.533045 4.51124e-16 1.58715e-18)
(0.536857 4.54801e-16 1.71931e-18)
(0.540413 4.30551e-16 4.6787e-18)
(0.543703 4.18333e-16 3.50726e-18)
(0.546716 3.72041e-16 1.12128e-17)
(0.549441 3.29357e-16 6.69332e-18)
(0.551867 3.12431e-16 8.14493e-18)
(0.55398 2.45618e-16 8.13878e-18)
(0.555771 2.23969e-16 7.54015e-18)
(0.557228 1.79632e-16 8.78452e-18)
(0.558336 1.35922e-16 7.9161e-18)
(0.559087 8.24845e-17 1.12678e-17)
(0.559468 1.43623e-17 6.99833e-18)
(0.0117582 -3.19181e-19 4.54837e-18)
(0.0357439 -2.85592e-18 1.46129e-17)
(0.0611128 -8.02917e-18 2.30226e-17)
(0.087904 -1.55184e-17 3.10452e-17)
(0.115667 -2.51687e-17 3.85257e-17)
(0.143223 -3.638e-17 4.48824e-17)
(0.169328 -4.8385e-17 4.9402e-17)
(0.193444 -6.04883e-17 5.14893e-17)
(0.215611 -7.23803e-17 5.12346e-17)
(0.236049 -8.38691e-17 4.87263e-17)
(0.25498 -9.45582e-17 4.407e-17)
(0.272591 -1.04244e-16 3.8421e-17)
(0.289037 -1.12854e-16 3.20143e-17)
(0.304449 -1.19475e-16 2.46955e-17)
(0.318938 -1.23936e-16 1.80769e-17)
(0.332605 -1.26874e-16 1.16779e-17)
(0.345538 -1.27666e-16 5.4952e-18)
(0.357816 -1.25598e-16 -1.99385e-19)
(0.369508 -1.20446e-16 -4.42883e-18)
(0.380679 -1.14084e-16 -7.29357e-18)
(0.391381 -1.06728e-16 -1.11054e-17)
(0.401663 -9.464e-17 -1.53485e-17)
(0.411566 -8.01733e-17 -1.68845e-17)
(0.421125 -6.35292e-17 -1.85578e-17)
(0.430371 -4.35551e-17 -2.11694e-17)
(0.439328 -2.17001e-17 -2.17332e-17)
(0.448019 1.74145e-18 -2.22047e-17)
(0.45646 2.87109e-17 -2.27502e-17)
(0.464666 5.86462e-17 -2.29671e-17)
(0.47265 8.75975e-17 -2.13148e-17)
(0.48042 1.19844e-16 -2.22183e-17)
(0.487983 1.50714e-16 -1.97607e-17)
(0.495347 1.77244e-16 -2.14892e-17)
(0.502513 2.11902e-16 -2.18868e-17)
(0.509485 2.45393e-16 -1.77198e-17)
(0.516264 2.75965e-16 -1.8983e-17)
(0.522849 3.12065e-16 -1.79145e-17)
(0.529241 3.41377e-16 -1.49974e-17)
(0.535436 3.68655e-16 -1.43426e-17)
(0.541433 3.96897e-16 -1.08157e-17)
(0.547227 4.21777e-16 -9.76431e-18)
(0.552814 4.58154e-16 -9.31137e-18)
(0.558189 4.8396e-16 -7.20497e-18)
(0.563346 5.00274e-16 -6.39136e-18)
(0.568279 5.13008e-16 -8.32512e-18)
(0.57298 5.27246e-16 -4.12002e-18)
(0.577442 5.29729e-16 1.52889e-18)
(0.581655 5.08409e-16 3.0957e-18)
(0.585612 5.08397e-16 2.78781e-18)
(0.589302 4.81252e-16 6.69066e-18)
(0.592714 4.64748e-16 5.97764e-18)
(0.595839 4.14755e-16 1.51265e-17)
(0.598665 3.67717e-16 1.00626e-17)
(0.60118 3.4506e-16 1.14735e-17)
(0.603372 2.73426e-16 1.28111e-17)
(0.605229 2.46694e-16 1.03585e-17)
(0.606738 1.98081e-16 1.24864e-17)
(0.607888 1.48665e-16 1.13719e-17)
(0.608666 8.98799e-17 1.59623e-17)
(0.60906 1.71614e-17 1.10556e-17)
(0.013689 -3.62815e-19 6.80792e-18)
(0.0416776 -3.22115e-18 2.08818e-17)
(0.0713376 -8.91577e-18 3.22129e-17)
(0.102621 -1.70872e-17 4.23204e-17)
(0.134627 -2.724e-17 5.09661e-17)
(0.165417 -3.84484e-17 5.74637e-17)
(0.193444 -4.985e-17 6.12489e-17)
(0.218529 -6.07659e-17 6.23206e-17)
(0.241185 -7.09615e-17 6.08464e-17)
(0.261937 -8.06157e-17 5.68738e-17)
(0.281165 -8.91519e-17 5.116e-17)
(0.299123 -9.6517e-17 4.40644e-17)
(0.315988 -1.03155e-16 3.61608e-17)
(0.331886 -1.07819e-16 2.77035e-17)
(0.346917 -1.10366e-16 2.0052e-17)
(0.361165 -1.11792e-16 1.24694e-17)
(0.374702 -1.11244e-16 4.8758e-18)
(0.387592 -1.0788e-16 -2.05091e-18)
(0.399892 -1.01755e-16 -6.88197e-18)
(0.411658 -9.46442e-17 -1.13281e-17)
(0.422935 -8.64787e-17 -1.63775e-17)
(0.433768 -7.34864e-17 -2.11299e-17)
(0.444195 -5.79752e-17 -2.30067e-17)
(0.45425 -4.08125e-17 -2.43946e-17)
(0.463964 -2.0066e-17 -2.80334e-17)
(0.473363 3.12293e-18 -2.87365e-17)
(0.48247 2.79541e-17 -2.94622e-17)
(0.491302 5.60645e-17 -2.94764e-17)
(0.499878 8.73881e-17 -3.01622e-17)
(0.508209 1.17985e-16 -2.7814e-17)
(0.516308 1.51182e-16 -2.92642e-17)
(0.524182 1.83459e-16 -2.77119e-17)
(0.53184 2.12008e-16 -2.85838e-17)
(0.539285 2.48048e-16 -2.77341e-17)
(0.546522 2.82771e-16 -2.51517e-17)
(0.553553 3.15192e-16 -2.44061e-17)
(0.560378 3.52733e-16 -2.31152e-17)
(0.566997 3.83646e-16 -1.96725e-17)
(0.57341 4.126e-16 -1.91456e-17)
(0.579613 4.42757e-16 -1.50578e-17)
(0.585604 4.7018e-16 -1.35776e-17)
(0.591378 5.07993e-16 -1.21477e-17)
(0.596931 5.35509e-16 -9.88877e-18)
(0.602257 5.5274e-16 -7.80222e-18)
(0.607349 5.64923e-16 -9.65299e-18)
(0.612201 5.77577e-16 -4.16654e-18)
(0.616804 5.77724e-16 3.23728e-18)
(0.621151 5.54363e-16 4.15445e-18)
(0.625231 5.50926e-16 4.27205e-18)
(0.629036 5.21549e-16 8.88724e-18)
(0.632555 5.0123e-16 9.86632e-18)
(0.635776 4.48717e-16 1.94794e-17)
(0.638689 3.98318e-16 1.29524e-17)
(0.641281 3.70613e-16 1.53421e-17)
(0.64354 2.95659e-16 1.82761e-17)
(0.645453 2.64315e-16 1.11276e-17)
(0.647009 2.12465e-16 1.52617e-17)
(0.648193 1.58574e-16 1.52551e-17)
(0.648994 9.56668e-17 2.00752e-17)
(0.649401 1.9616e-17 1.56982e-17)
(0.0155893 -3.4918e-19 9.39994e-18)
(0.0475128 -3.34297e-18 2.80109e-17)
(0.0813674 -9.32494e-18 4.25593e-17)
(0.116956 -1.77827e-17 5.47426e-17)
(0.152812 -2.7999e-17 6.4262e-17)
(0.186245 -3.87808e-17 7.01871e-17)
(0.215611 -4.90675e-17 7.24601e-17)
(0.241185 -5.84215e-17 7.18301e-17)
(0.263918 -6.72788e-17 6.87392e-17)
(0.28461 -7.50848e-17 6.33798e-17)
(0.303782 -8.16906e-17 5.6616e-17)
(0.321754 -8.71912e-17 4.84495e-17)
(0.338726 -9.169e-17 3.93811e-17)
(0.354828 -9.42676e-17 3.0281e-17)
(0.370148 -9.51064e-17 2.14674e-17)
(0.384757 -9.52696e-17 1.24826e-17)
(0.398708 -9.34755e-17 3.66636e-18)
(0.41205 -8.8691e-17 -4.18487e-18)
(0.424826 -8.19164e-17 -1.0095e-17)
(0.437077 -7.436e-17 -1.57887e-17)
(0.448842 -6.51758e-17 -2.22499e-17)
(0.460154 -5.13736e-17 -2.73163e-17)
(0.471048 -3.50423e-17 -2.98477e-17)
(0.481554 -1.7808e-17 -3.07343e-17)
(0.491699 3.2605e-18 -3.52993e-17)
(0.501508 2.73854e-17 -3.615e-17)
(0.511004 5.29839e-17 -3.73493e-17)
(0.520205 8.18873e-17 -3.77536e-17)
(0.529129 1.14074e-16 -3.77844e-17)
(0.53779 1.45523e-16 -3.63664e-17)
(0.5462 1.79068e-16 -3.69771e-17)
(0.554369 2.12409e-16 -3.57096e-17)
(0.562304 2.42642e-16 -3.62062e-17)
(0.570013 2.7917e-16 -3.41274e-17)
(0.577499 3.14712e-16 -3.30398e-17)
(0.584766 3.48645e-16 -2.97586e-17)
(0.591815 3.86805e-16 -2.88386e-17)
(0.598647 4.18776e-16 -2.47152e-17)
(0.605261 4.49014e-16 -2.45811e-17)
(0.611656 4.80651e-16 -1.96775e-17)
(0.617829 5.09931e-16 -1.79748e-17)
(0.623775 5.48495e-16 -1.63755e-17)
(0.629492 5.77326e-16 -1.4314e-17)
(0.634972 5.95221e-16 -9.60072e-18)
(0.640211 6.06757e-16 -1.11245e-17)
(0.6452 6.18013e-16 -5.13808e-18)
(0.649933 6.16059e-16 4.57066e-18)
(0.654401 5.91055e-16 6.49804e-18)
(0.658594 5.84585e-16 6.26052e-18)
(0.662504 5.53576e-16 1.12521e-17)
(0.666118 5.29841e-16 1.51588e-17)
(0.669427 4.75529e-16 2.369e-17)
(0.672418 4.22753e-16 1.61236e-17)
(0.67508 3.90767e-16 1.97286e-17)
(0.677399 3.13347e-16 2.33015e-17)
(0.679364 2.77985e-16 1.20814e-17)
(0.68096 2.23895e-16 1.91412e-17)
(0.682176 1.66305e-16 2.00798e-17)
(0.682999 1.00209e-16 2.20492e-17)
(0.683416 2.18335e-17 2.07237e-17)
(0.0174265 -3.70838e-19 1.21822e-17)
(0.0531487 -3.35822e-18 3.56558e-17)
(0.0910288 -9.28935e-18 5.36729e-17)
(0.130671 -1.75428e-17 6.7918e-17)
(0.169985 -2.73291e-17 7.8037e-17)
(0.205637 -3.74321e-17 8.31174e-17)
(0.236049 -4.66038e-17 8.35712e-17)
(0.261937 -5.45371e-17 8.08064e-17)
(0.28461 -6.17468e-17 7.58306e-17)
(0.30509 -6.78216e-17 6.93747e-17)
(0.324028 -7.26431e-17 6.11405e-17)
(0.341815 -7.64331e-17 5.18945e-17)
(0.358685 -7.9006e-17 4.19371e-17)
(0.374779 -7.99195e-17 3.21518e-17)
(0.390187 -7.96111e-17 2.194e-17)
(0.404966 -7.84399e-17 1.18154e-17)
(0.419162 -7.52583e-17 1.98676e-18)
(0.432806 -6.93877e-17 -6.53981e-18)
(0.44593 -6.18964e-17 -1.40053e-17)
(0.458559 -5.38578e-17 -2.08533e-17)
(0.470722 -4.38533e-17 -2.82134e-17)
(0.482442 -2.93655e-17 -3.39628e-17)
(0.493746 -1.23677e-17 -3.66066e-17)
(0.504656 4.80015e-18 -3.77668e-17)
(0.515197 2.57749e-17 -4.26998e-17)
(0.525389 5.05273e-17 -4.42836e-17)
(0.535253 7.65004e-17 -4.58693e-17)
(0.544806 1.05906e-16 -4.66212e-17)
(0.554065 1.38337e-16 -4.63107e-17)
(0.563044 1.70326e-16 -4.56722e-17)
(0.571755 2.04089e-16 -4.5877e-17)
(0.58021 2.37751e-16 -4.4293e-17)
(0.588415 2.6925e-16 -4.42338e-17)
(0.596379 3.05984e-16 -4.1624e-17)
(0.604107 3.42013e-16 -4.03376e-17)
(0.611602 3.76833e-16 -3.54585e-17)
(0.618868 4.15121e-16 -3.50984e-17)
(0.625905 4.47831e-16 -3.008e-17)
(0.632713 4.78993e-16 -3.03646e-17)
(0.639291 5.11761e-16 -2.46706e-17)
(0.645637 5.42231e-16 -2.28552e-17)
(0.651748 5.8092e-16 -2.14055e-17)
(0.65762 6.10875e-16 -1.89606e-17)
(0.663247 6.29326e-16 -1.14088e-17)
(0.668624 6.40094e-16 -1.24915e-17)
(0.673743 6.50105e-16 -6.35285e-18)
(0.678598 6.46453e-16 5.04722e-18)
(0.683179 6.20126e-16 8.70563e-18)
(0.687478 6.10836e-16 8.70803e-18)
(0.691485 5.78835e-16 1.43217e-17)
(0.695189 5.52068e-16 2.07301e-17)
(0.698579 4.96541e-16 2.81221e-17)
(0.701644 4.42161e-16 2.07009e-17)
(0.70437 4.06448e-16 2.50494e-17)
(0.706746 3.27448e-16 2.83656e-17)
(0.708757 2.88676e-16 1.49082e-17)
(0.710392 2.32909e-16 2.44435e-17)
(0.711638 1.72096e-16 2.58895e-17)
(0.71248 1.03764e-16 2.43348e-17)
(0.712907 2.39685e-17 2.61315e-17)
(0.0191777 -3.48187e-19 1.5095e-17)
(0.0585167 -3.11172e-18 4.36161e-17)
(0.100211 -8.62361e-18 6.51341e-17)
(0.143633 -1.61981e-17 8.13325e-17)
(0.18606 -2.50058e-17 9.1654e-17)
(0.223645 -3.41558e-17 9.54935e-17)
(0.25498 -4.21986e-17 9.40599e-17)
(0.281165 -4.87587e-17 8.91898e-17)
(0.303782 -5.42778e-17 8.22924e-17)
(0.324028 -5.90991e-17 7.41416e-17)
(0.342668 -6.28124e-17 6.46099e-17)
(0.36017 -6.49358e-17 5.42544e-17)
(0.376808 -6.57155e-17 4.3329e-17)
(0.392747 -6.53423e-17 3.21366e-17)
(0.408085 -6.39283e-17 2.14174e-17)
(0.42288 -6.15047e-17 1.04034e-17)
(0.43717 -5.70931e-17 -4.5678e-19)
(0.450978 -5.03311e-17 -9.64715e-18)
(0.464324 -4.23971e-17 -1.81033e-17)
(0.477223 -3.37473e-17 -2.6569e-17)
(0.48969 -2.298e-17 -3.42707e-17)
(0.50174 -7.75618e-18 -4.0398e-17)
(0.513389 9.7592e-18 -4.34384e-17)
(0.524653 2.65677e-17 -4.51517e-17)
(0.535549 4.72741e-17 -5.02009e-17)
(0.546093 7.22583e-17 -5.29728e-17)
(0.5563 9.83985e-17 -5.49926e-17)
(0.566187 1.28008e-16 -5.59684e-17)
(0.575768 1.6045e-16 -5.61251e-17)
(0.585055 1.92443e-16 -5.54025e-17)
(0.59406 2.26117e-16 -5.60431e-17)
(0.602793 2.60064e-16 -5.3778e-17)
(0.611264 2.92332e-16 -5.29435e-17)
(0.619479 3.2896e-16 -5.00701e-17)
(0.627445 3.65221e-16 -4.80674e-17)
(0.635165 4.00431e-16 -4.25652e-17)
(0.642643 4.38526e-16 -4.11009e-17)
(0.649881 4.7162e-16 -3.57092e-17)
(0.656879 5.03408e-16 -3.6469e-17)
(0.663637 5.37003e-16 -3.0005e-17)
(0.670152 5.68081e-16 -2.8213e-17)
(0.676423 6.06568e-16 -2.66986e-17)
(0.682445 6.37381e-16 -2.19178e-17)
(0.688214 6.56095e-16 -1.31518e-17)
(0.693724 6.66e-16 -1.31044e-17)
(0.698968 6.74932e-16 -7.98521e-18)
(0.703939 6.69959e-16 5.3367e-18)
(0.708629 6.42737e-16 9.15188e-18)
(0.713029 6.30999e-16 1.14388e-17)
(0.717129 5.98308e-16 1.82432e-17)
(0.720918 5.68908e-16 2.57837e-17)
(0.724385 5.12695e-16 3.23552e-17)
(0.72752 4.57351e-16 2.63899e-17)
(0.730307 4.18456e-16 3.12564e-17)
(0.732736 3.38516e-16 3.41751e-17)
(0.734792 2.96935e-16 1.92884e-17)
(0.736464 2.39972e-16 3.03197e-17)
(0.737736 1.76396e-16 3.21725e-17)
(0.738597 1.06473e-16 2.83592e-17)
(0.739034 2.59068e-17 3.20141e-17)
(0.0208315 -3.01145e-19 1.79351e-17)
(0.0635839 -2.71162e-18 5.13056e-17)
(0.108865 -7.54417e-18 7.60903e-17)
(0.155799 -1.4228e-17 9.39468e-17)
(0.201047 -2.19689e-17 1.04163e-16)
(0.240373 -2.97319e-17 1.06579e-16)
(0.272591 -3.64403e-17 1.03186e-16)
(0.299124 -4.17505e-17 9.63129e-17)
(0.321754 -4.59718e-17 8.74826e-17)
(0.341815 -4.94085e-17 7.74629e-17)
(0.36017 -5.17029e-17 6.68228e-17)
(0.377355 -5.26591e-17 5.54648e-17)
(0.393695 -5.23976e-17 4.34924e-17)
(0.409387 -5.05011e-17 3.11238e-17)
(0.424544 -4.79024e-17 1.9417e-17)
(0.439233 -4.48897e-17 7.70364e-18)
(0.453492 -3.92878e-17 -3.74185e-18)
(0.467341 -3.15429e-17 -1.40454e-17)
(0.480793 -2.33843e-17 -2.34271e-17)
(0.493854 -1.41665e-17 -3.29236e-17)
(0.506531 -2.43989e-18 -4.0884e-17)
(0.518828 1.31253e-17 -4.69876e-17)
(0.530752 3.08598e-17 -5.13034e-17)
(0.542312 4.74751e-17 -5.354e-17)
(0.553515 6.75636e-17 -5.86523e-17)
(0.564373 9.24975e-17 -6.24531e-17)
(0.574895 1.18781e-16 -6.48632e-17)
(0.585093 1.48182e-16 -6.59651e-17)
(0.594978 1.80336e-16 -6.68086e-17)
(0.604561 2.12238e-16 -6.6687e-17)
(0.613851 2.45664e-16 -6.68601e-17)
(0.622857 2.79555e-16 -6.35366e-17)
(0.631589 3.1215e-16 -6.24506e-17)
(0.640052 3.48563e-16 -5.91798e-17)
(0.648253 3.84728e-16 -5.6425e-17)
(0.656197 4.2007e-16 -5.04371e-17)
(0.663886 4.57726e-16 -4.73699e-17)
(0.671323 4.90692e-16 -4.16439e-17)
(0.67851 5.22929e-16 -4.20128e-17)
(0.685445 5.57078e-16 -3.57121e-17)
(0.692128 5.8825e-16 -3.40757e-17)
(0.698556 6.26424e-16 -3.22594e-17)
(0.704726 6.57705e-16 -2.52369e-17)
(0.710634 6.76363e-16 -1.51598e-17)
(0.716274 6.85334e-16 -1.47798e-17)
(0.72164 6.93335e-16 -8.11255e-18)
(0.726725 6.87428e-16 6.92636e-18)
(0.731521 6.59678e-16 9.63289e-18)
(0.736018 6.45947e-16 1.45593e-17)
(0.740208 6.12716e-16 2.2963e-17)
(0.74408 5.81073e-16 3.05543e-17)
(0.747622 5.24725e-16 3.68815e-17)
(0.750823 4.68905e-16 3.23558e-17)
(0.753669 4.27271e-16 3.81231e-17)
(0.756149 3.47048e-16 4.10168e-17)
(0.758248 3.0316e-16 2.45872e-17)
(0.759954 2.45283e-16 3.55571e-17)
(0.761253 1.79409e-16 3.85638e-17)
(0.762132 1.08495e-16 3.37606e-17)
(0.762578 2.76603e-17 3.8338e-17)
(0.0223866 -3.03847e-19 2.05116e-17)
(0.0683478 -2.35763e-18 5.82815e-17)
(0.116995 -6.42245e-18 8.6076e-17)
(0.167191 -1.19788e-17 1.05394e-16)
(0.215015 -1.82821e-17 1.15547e-16)
(0.255942 -2.45594e-17 1.16652e-16)
(0.289037 -2.98627e-17 1.11363e-16)
(0.315988 -3.3852e-17 1.02504e-16)
(0.338726 -3.68358e-17 9.18291e-17)
(0.358685 -3.89092e-17 8.01541e-17)
(0.376808 -4.00111e-17 6.80573e-17)
(0.393695 -4.00021e-17 5.54809e-17)
(0.409722 -3.87355e-17 4.25603e-17)
(0.425119 -3.59665e-17 2.9184e-17)
(0.440025 -3.22663e-17 1.61419e-17)
(0.45452 -2.81163e-17 3.37904e-18)
(0.468651 -2.18388e-17 -8.21565e-18)
(0.482439 -1.35254e-17 -1.97358e-17)
(0.495895 -4.90903e-18 -3.04572e-17)
(0.50902 4.95082e-18 -4.01924e-17)
(0.521813 1.74705e-17 -4.84749e-17)
(0.534274 3.31015e-17 -5.53282e-17)
(0.546399 5.08827e-17 -6.05739e-17)
(0.55819 6.73633e-17 -6.35688e-17)
(0.569648 8.67494e-17 -6.90414e-17)
(0.580775 1.11433e-16 -7.30401e-17)
(0.591576 1.377e-16 -7.56197e-17)
(0.602057 1.66599e-16 -7.75267e-17)
(0.612225 1.98032e-16 -7.80762e-17)
(0.622087 2.29759e-16 -7.75997e-17)
(0.631651 2.631e-16 -7.81114e-17)
(0.640922 2.96585e-16 -7.37999e-17)
(0.649909 3.29043e-16 -7.25468e-17)
(0.658617 3.65095e-16 -6.87848e-17)
(0.667052 4.00948e-16 -6.52536e-17)
(0.675217 4.36138e-16 -5.87077e-17)
(0.683117 4.73144e-16 -5.38516e-17)
(0.690754 5.05801e-16 -4.57555e-17)
(0.698128 5.38096e-16 -4.56641e-17)
(0.70524 5.72332e-16 -4.17317e-17)
(0.71209 6.03334e-16 -3.99412e-17)
(0.718675 6.40995e-16 -3.63697e-17)
(0.724993 6.72585e-16 -3.04718e-17)
(0.731038 6.90786e-16 -1.89694e-17)
(0.736808 6.98965e-16 -1.6972e-17)
(0.742294 7.06339e-16 -7.04851e-18)
(0.747491 6.99358e-16 9.39076e-18)
(0.752391 6.71442e-16 1.11213e-17)
(0.756985 6.56246e-16 1.81218e-17)
(0.761263 6.22556e-16 2.82256e-17)
(0.765215 5.89124e-16 3.53098e-17)
(0.76883 5.33056e-16 4.16206e-17)
(0.772096 4.77183e-16 3.80475e-17)
(0.775 4.33427e-16 4.53404e-17)
(0.777529 3.53257e-16 4.67099e-17)
(0.779671 3.0744e-16 2.92666e-17)
(0.78141 2.49126e-16 4.06155e-17)
(0.782735 1.81514e-16 4.50509e-17)
(0.783631 1.09909e-16 4.08747e-17)
(0.784085 2.91384e-17 4.57506e-17)
(0.0238483 -2.36347e-19 2.27818e-17)
(0.0728256 -1.8455e-18 6.44737e-17)
(0.124632 -5.0053e-18 9.49037e-17)
(0.177867 -9.16713e-18 1.15374e-16)
(0.228058 -1.3997e-17 1.2515e-16)
(0.270475 -1.8786e-17 1.24859e-16)
(0.304449 -2.26478e-17 1.17791e-16)
(0.331886 -2.53969e-17 1.07102e-16)
(0.354828 -2.72692e-17 9.46707e-17)
(0.374779 -2.81903e-17 8.13537e-17)
(0.392747 -2.8128e-17 6.78184e-17)
(0.409387 -2.71101e-17 5.40855e-17)
(0.425119 -2.51821e-17 4.02889e-17)
(0.440211 -2.16581e-17 2.62923e-17)
(0.454831 -1.71499e-17 1.21276e-17)
(0.469078 -1.17765e-17 -1.45345e-18)
(0.48301 -4.67699e-18 -1.39798e-17)
(0.496656 3.6253e-18 -2.64339e-17)
(0.51003 1.29957e-17 -3.82881e-17)
(0.523131 2.37477e-17 -4.81856e-17)
(0.535957 3.64653e-17 -5.70076e-17)
(0.5485 5.19873e-17 -6.47806e-17)
(0.560753 6.99037e-17 -7.10352e-17)
(0.572709 8.60583e-17 -7.60921e-17)
(0.584362 1.04833e-16 -8.09759e-17)
(0.595708 1.29322e-16 -8.43772e-17)
(0.606747 1.55034e-16 -8.68402e-17)
(0.617478 1.83388e-16 -8.91209e-17)
(0.627902 2.14484e-16 -8.98756e-17)
(0.638023 2.45316e-16 -8.76803e-17)
(0.647844 2.78145e-16 -8.95446e-17)
(0.65737 3.11295e-16 -8.46704e-17)
(0.666604 3.43294e-16 -8.34392e-17)