/*--------------------------------*- C++ -*----------------------------------*\
| =========                 |                                                 |
| \\      /  F ield         | OpenFOAM: The Open Source CFD Toolbox           |
|  \\    /   O peration     | Version:  2212                                  |
|   \\  /    A nd           | Website:  www.openfoam.com                      |
|    \\/     M anipulation  |                                                 |
\*---------------------------------------------------------------------------*/
FoamFile
{
    version     2.0;
    format      ascii;
    arch        "LSB;label=32;scalar=64";
    class       volScalarField;
    location    "0";
    object      V;
}
// * * * * * * * * * * * * * * * * * * * * * * * * * * * * * * * * * * * * * //

dimensions      [0 3 0 0 0 0 0];

internalField   nonuniform List<scalar> 
3600
(
6e-07
6.41865e-07
6.86565e-07
7.34279e-07
7.85197e-07
8.39517e-07
8.97447e-07
9.59206e-07
1.02502e-06
1.09514e-06
1.1698e-06
1.24926e-06
1.33379e-06
1.42368e-06
1.5192e-06
1.62064e-06
1.72831e-06
1.84252e-06
1.96356e-06
2.09175e-06
2.2274e-06
2.37081e-06
2.52229e-06
2.68212e-06
2.85059e-06
3.02795e-06
3.21444e-06
3.41028e-06
3.61563e-06
3.83064e-06
4.05541e-06
4.28995e-06
4.53426e-06
4.78824e-06
5.05172e-06
5.32443e-06
5.60603e-06
5.89606e-06
6.19396e-06
6.49903e-06
6.81048e-06
7.12736e-06
7.44861e-06
7.77301e-06
8.09923e-06
8.4258e-06
8.75113e-06
9.07348e-06
9.39106e-06
9.70193e-06
1.00041e-05
1.02956e-05
1.05742e-05
1.0838e-05
1.10849e-05
1.13129e-05
1.15201e-05
1.17048e-05
1.18652e-05
1.2e-05
6.41865e-07
6.86651e-07
7.3447e-07
7.85514e-07
8.39984e-07
8.98094e-07
9.60066e-07
1.02613e-06
1.09654e-06
1.17155e-06
1.25142e-06
1.33643e-06
1.42686e-06
1.52301e-06
1.6252e-06
1.73372e-06
1.84891e-06
1.97108e-06
2.10057e-06
2.2377e-06
2.38282e-06
2.53624e-06
2.69828e-06
2.86927e-06
3.04949e-06
3.23922e-06
3.43873e-06
3.64823e-06
3.86791e-06
4.09793e-06
4.33837e-06
4.58929e-06
4.85064e-06
5.12234e-06
5.4042e-06
5.69594e-06
5.99719e-06
6.30746e-06
6.62614e-06
6.9525e-06
7.28568e-06
7.62467e-06
7.96833e-06
8.31537e-06
8.66436e-06
9.01372e-06
9.36174e-06
9.70659e-06
1.00463e-05
1.03789e-05
1.07022e-05
1.10139e-05
1.13121e-05
1.15943e-05
1.18584e-05
1.21023e-05
1.23239e-05
1.25215e-05
1.26931e-05
1.28373e-05
6.86565e-07
7.3447e-07
7.85619e-07
8.40217e-07
8.98481e-07
9.60638e-07
1.02693e-06
1.0976e-06
1.17291e-06
1.25314e-06
1.33857e-06
1.4295e-06
1.52623e-06
1.62908e-06
1.73838e-06
1.85446e-06
1.97767e-06
2.10835e-06
2.24685e-06
2.39354e-06
2.54876e-06
2.71286e-06
2.88619e-06
3.06909e-06
3.26186e-06
3.46481e-06
3.6782e-06
3.90229e-06
4.13728e-06
4.38331e-06
4.6405e-06
4.90889e-06
5.18845e-06
5.47907e-06
5.78055e-06
6.09261e-06
6.41484e-06
6.74672e-06
7.08759e-06
7.43668e-06
7.79306e-06
8.15566e-06
8.52325e-06
8.89446e-06
9.26775e-06
9.64144e-06
1.00137e-05
1.03826e-05
1.0746e-05
1.11017e-05
1.14475e-05
1.1781e-05
1.20998e-05
1.24017e-05
1.26842e-05
1.29451e-05
1.31822e-05
1.33935e-05
1.35771e-05
1.37313e-05
7.34279e-07
7.85514e-07
8.40217e-07
8.9861e-07
9.60923e-07
1.0274e-06
1.09829e-06
1.17388e-06
1.25442e-06
1.34023e-06
1.43159e-06
1.52884e-06
1.6323e-06
1.7423e-06
1.85919e-06
1.98334e-06
2.11511e-06
2.25487e-06
2.403e-06
2.55988e-06
2.72589e-06
2.9014e-06
3.08677e-06
3.28238e-06
3.48855e-06
3.7056e-06
3.93383e-06
4.17349e-06
4.42481e-06
4.68794e-06
4.963e-06
5.25004e-06
5.54903e-06
5.85985e-06
6.18229e-06
6.51603e-06
6.86066e-06
7.21559e-06
7.58016e-06
7.95351e-06
8.33466e-06
8.72246e-06
9.1156e-06
9.5126e-06
9.91183e-06
1.03115e-05
1.07096e-05
1.11041e-05
1.14928e-05
1.18732e-05
1.2243e-05
1.25997e-05
1.29407e-05
1.32636e-05
1.35657e-05
1.38447e-05
1.40983e-05
1.43243e-05
1.45206e-05
1.46856e-05
7.85197e-07
8.39984e-07
8.98481e-07
9.60923e-07
1.02756e-06
1.09864e-06
1.17445e-06
1.25528e-06
1.34141e-06
1.43316e-06
1.53087e-06
1.63486e-06
1.74548e-06
1.86311e-06
1.98811e-06
2.12087e-06
2.26178e-06
2.41123e-06
2.56964e-06
2.73739e-06
2.91491e-06
3.10259e-06
3.30082e-06
3.50999e-06
3.73046e-06
3.96256e-06
4.20662e-06
4.4629e-06
4.73164e-06
5.01302e-06
5.30716e-06
5.6141e-06
5.93382e-06
6.26619e-06
6.61099e-06
6.96788e-06
7.3364e-06
7.71595e-06
8.10579e-06
8.50503e-06
8.91261e-06
9.3273e-06
9.74771e-06
1.01722e-05
1.05992e-05
1.10265e-05
1.14523e-05
1.18741e-05
1.22897e-05
1.26965e-05
1.3092e-05
1.34734e-05
1.38381e-05
1.41833e-05
1.45064e-05
1.48048e-05
1.5076e-05
1.53176e-05
1.55275e-05
1.57039e-05
8.39517e-07
8.98094e-07
9.60638e-07
1.0274e-06
1.09864e-06
1.17465e-06
1.2557e-06
1.34212e-06
1.43421e-06
1.53231e-06
1.63677e-06
1.74796e-06
1.86624e-06
1.992e-06
2.12565e-06
2.26759e-06
2.41825e-06
2.57804e-06
2.7474e-06
2.92676e-06
3.11656e-06
3.31723e-06
3.52917e-06
3.75281e-06
3.98853e-06
4.23669e-06
4.49763e-06
4.77164e-06
5.05897e-06
5.35982e-06
5.6743e-06
6.00248e-06
6.34432e-06
6.69968e-06
7.06834e-06
7.44991e-06
7.84393e-06
8.24974e-06
8.66655e-06
9.09341e-06
9.52918e-06
9.97256e-06
1.0422e-05
1.0876e-05
1.13324e-05
1.17893e-05
1.22445e-05
1.26956e-05
1.31399e-05
1.35749e-05
1.39977e-05
1.44055e-05
1.47954e-05
1.51645e-05
1.551e-05
1.5829e-05
1.61189e-05
1.63772e-05
1.66017e-05
1.67903e-05
8.97447e-07
9.60066e-07
1.02693e-06
1.09829e-06
1.17445e-06
1.2557e-06
1.34235e-06
1.43473e-06
1.53317e-06
1.63804e-06
1.74971e-06
1.86857e-06
1.99501e-06
2.12946e-06
2.27233e-06
2.42407e-06
2.58512e-06
2.75594e-06
2.93698e-06
3.12872e-06
3.33162e-06
3.54613e-06
3.7727e-06
4.01177e-06
4.26375e-06
4.52904e-06
4.80798e-06
5.1009e-06
5.40806e-06
5.72967e-06
6.06585e-06
6.41668e-06
6.7821e-06
7.16199e-06
7.55608e-06
7.96399e-06
8.38519e-06
8.819e-06
9.26458e-06
9.72089e-06
1.01867e-05
1.06607e-05
1.11412e-05
1.16264e-05
1.21144e-05
1.26029e-05
1.30894e-05
1.35716e-05
1.40466e-05
1.45116e-05
1.49636e-05
1.53995e-05
1.58164e-05
1.62109e-05
1.65802e-05
1.69212e-05
1.72312e-05
1.75073e-05
1.77473e-05
1.79489e-05
9.59206e-07
1.02613e-06
1.0976e-06
1.17388e-06
1.25528e-06
1.34212e-06
1.43473e-06
1.53346e-06
1.63868e-06
1.75077e-06
1.87012e-06
1.99716e-06
2.1323e-06
2.276e-06
2.4287e-06
2.59088e-06
2.76302e-06
2.94559e-06
3.1391e-06
3.34403e-06
3.56089e-06
3.79016e-06
4.03232e-06
4.28785e-06
4.55717e-06
4.84071e-06
5.13885e-06
5.45193e-06
5.78022e-06
6.12396e-06
6.48328e-06
6.85825e-06
7.24882e-06
7.65485e-06
8.07606e-06
8.51204e-06
8.96223e-06
9.4259e-06
9.90213e-06
1.03898e-05
1.08878e-05
1.13943e-05
1.19079e-05
1.24265e-05
1.29481e-05
1.34701e-05
1.39902e-05
1.45056e-05
1.50133e-05
1.55102e-05
1.59933e-05
1.64593e-05
1.69048e-05
1.73265e-05
1.77212e-05
1.80857e-05
1.8417e-05
1.87121e-05
1.89686e-05
1.91841e-05
1.02502e-06
1.09654e-06
1.17291e-06
1.25442e-06
1.34141e-06
1.43421e-06
1.53317e-06
1.63868e-06
1.75112e-06
1.8709e-06
1.99844e-06
2.1342e-06
2.27861e-06
2.43217e-06
2.59535e-06
2.76866e-06
2.9526e-06
3.1477e-06
3.35449e-06
3.57349e-06
3.80522e-06
4.05023e-06
4.30901e-06
4.58206e-06
4.86986e-06
5.17286e-06
5.49146e-06
5.82602e-06
6.17684e-06
6.54416e-06
6.92814e-06
7.32884e-06
7.74621e-06
8.1801e-06
8.63021e-06
9.09611e-06
9.57718e-06
1.00727e-05
1.05816e-05
1.11028e-05
1.16348e-05
1.21762e-05
1.2725e-05
1.32792e-05
1.38365e-05
1.43944e-05
1.49502e-05
1.55009e-05
1.60434e-05
1.65745e-05
1.70907e-05
1.75887e-05
1.80647e-05
1.85154e-05
1.89372e-05
1.93267e-05
1.96807e-05
1.99961e-05
2.02702e-05
2.05005e-05
1.09514e-06
1.17155e-06
1.25314e-06
1.34023e-06
1.43316e-06
1.53231e-06
1.63804e-06
1.75077e-06
1.8709e-06
1.99887e-06
2.13514e-06
2.28018e-06
2.43448e-06
2.59854e-06
2.77288e-06
2.95804e-06
3.15457e-06
3.36301e-06
3.58394e-06
3.81792e-06
4.06551e-06
4.32727e-06
4.60375e-06
4.89548e-06
5.20297e-06
5.52669e-06
5.86709e-06
6.22453e-06
6.59935e-06
6.9918e-06
7.40204e-06
7.83014e-06
8.27606e-06
8.73963e-06
9.22053e-06
9.7183e-06
1.02323e-05
1.07617e-05
1.13054e-05
1.18622e-05
1.24307e-05
1.30091e-05
1.35954e-05
1.41875e-05
1.47829e-05
1.5379e-05
1.59728e-05
1.65612e-05
1.71408e-05
1.77082e-05
1.82598e-05
1.87918e-05
1.93004e-05
1.97819e-05
2.02325e-05
2.06487e-05
2.10269e-05
2.13639e-05
2.16567e-05
2.19027e-05
1.1698e-06
1.25142e-06
1.33857e-06
1.43159e-06
1.53087e-06
1.63677e-06
1.74971e-06
1.87012e-06
1.99844e-06
2.13514e-06
2.2807e-06
2.43563e-06
2.60044e-06
2.77569e-06
2.96191e-06
3.1597e-06
3.36962e-06
3.59228e-06
3.82827e-06
4.0782e-06
4.34267e-06
4.62227e-06
4.9176e-06
5.22922e-06
5.55768e-06
5.90347e-06
6.26706e-06
6.64888e-06
7.04925e-06
7.46845e-06
7.90666e-06
8.36395e-06
8.84027e-06
9.33544e-06
9.84913e-06
1.03808e-05
1.09299e-05
1.14953e-05
1.20761e-05
1.26709e-05
1.32781e-05
1.38959e-05
1.45222e-05
1.51547e-05
1.57907e-05
1.64274e-05
1.70617e-05
1.76902e-05
1.83094e-05
1.89155e-05
1.95046e-05
2.00729e-05
2.06162e-05
2.11305e-05
2.16118e-05
2.20563e-05
2.24603e-05
2.28203e-05
2.31331e-05
2.33959e-05
1.24926e-06
1.33643e-06
1.4295e-06
1.52884e-06
1.63486e-06
1.74796e-06
1.86857e-06
1.99716e-06
2.1342e-06
2.28018e-06
2.43563e-06
2.60108e-06
2.77709e-06
2.96424e-06
3.16311e-06
3.37433e-06
3.59852e-06
3.8363e-06
4.08832e-06
4.35523e-06
4.63766e-06
4.93626e-06
5.25165e-06
5.58444e-06
5.9352e-06
6.30448e-06
6.69278e-06
7.10053e-06
7.5281e-06
7.97578e-06
8.44375e-06
8.9321e-06
9.44078e-06
9.96959e-06
1.05182e-05
1.1086e-05
1.16723e-05
1.22762e-05
1.28964e-05
1.35316e-05
1.41801e-05
1.48399e-05
1.55087e-05
1.61842e-05
1.68634e-05
1.75433e-05
1.82207e-05
1.88919e-05
1.95531e-05
2.02004e-05
2.08295e-05
2.14364e-05
2.20166e-05
2.25659e-05
2.30799e-05
2.35546e-05
2.3986e-05
2.43705e-05
2.47045e-05
2.49852e-05
1.33379e-06
1.42686e-06
1.52623e-06
1.6323e-06
1.74548e-06
1.86624e-06
1.99501e-06
2.1323e-06
2.27861e-06
2.43448e-06
2.60044e-06
2.77709e-06
2.96501e-06
3.16482e-06
3.37716e-06
3.60267e-06
3.84202e-06
4.0959e-06
4.36497e-06
4.64994e-06
4.95148e-06
5.27029e-06
5.60702e-06
5.96233e-06
6.33683e-06
6.7311e-06
7.14567e-06
7.58101e-06
8.03751e-06
8.51548e-06
9.01512e-06
9.53652e-06
1.00796e-05
1.06442e-05
1.12299e-05
1.18362e-05
1.24621e-05
1.31069e-05
1.37691e-05
1.44473e-05
1.51396e-05
1.5844e-05
1.65582e-05
1.72793e-05
1.80045e-05
1.87305e-05
1.94537e-05
2.01703e-05
2.08762e-05
2.15673e-05
2.2239e-05
2.2887e-05
2.35064e-05
2.40928e-05
2.46417e-05
2.51485e-05
2.56091e-05
2.60196e-05
2.63762e-05
2.66759e-05
1.42368e-06
1.52301e-06
1.62908e-06
1.7423e-06
1.86311e-06
1.992e-06
2.12946e-06
2.276e-06
2.43217e-06
2.59854e-06
2.77569e-06
2.96424e-06
3.16482e-06
3.3781e-06
3.60474e-06
3.84545e-06
4.10094e-06
4.37192e-06
4.65913e-06
4.9633e-06
5.28516e-06
5.62545e-06
5.98488e-06
6.36413e-06
6.76387e-06
7.18471e-06
7.62721e-06
8.09189e-06
8.57916e-06
9.08934e-06
9.62265e-06
1.01792e-05
1.07589e-05
1.13615e-05
1.19867e-05
1.26338e-05
1.3302e-05
1.39902e-05
1.4697e-05
1.54209e-05
1.61599e-05
1.69118e-05
1.7674e-05
1.84438e-05
1.92178e-05
1.99927e-05
2.07646e-05
2.15295e-05
2.22831e-05
2.30207e-05
2.37377e-05
2.44293e-05
2.50905e-05
2.57165e-05
2.63023e-05
2.68433e-05
2.73349e-05
2.7773e-05
2.81537e-05
2.84736e-05
1.5192e-06
1.6252e-06
1.73838e-06
1.85919e-06
1.98811e-06
2.12565e-06
2.27233e-06
2.4287e-06
2.59535e-06
2.77288e-06
2.96191e-06
3.16311e-06
3.37716e-06
3.60474e-06
3.8466e-06
4.10346e-06
4.37608e-06
4.66524e-06
4.97172e-06
5.2963e-06
5.63976e-06
6.00288e-06
6.38642e-06
6.79112e-06
7.21767e-06
7.66675e-06
8.13894e-06
8.6348e-06
9.15476e-06
9.69917e-06
1.02683e-05
1.08621e-05
1.14807e-05
1.21238e-05
1.27909e-05
1.34814e-05
1.41944e-05
1.49288e-05
1.56831e-05
1.64555e-05
1.72441e-05
1.80464e-05
1.88598e-05
1.96812e-05
2.05072e-05
2.13341e-05
2.21578e-05
2.2974e-05
2.37781e-05
2.45652e-05
2.53304e-05
2.60683e-05
2.67739e-05
2.74418e-05
2.8067e-05
2.86443e-05
2.91689e-05
2.96364e-05
3.00426e-05
3.03839e-05
1.62064e-06
1.73372e-06
1.85446e-06
1.98334e-06
2.12087e-06
2.26759e-06
2.42407e-06
2.59088e-06
2.76866e-06
2.95804e-06
3.1597e-06
3.37433e-06
3.60267e-06
3.84545e-06
4.10346e-06
4.37747e-06
4.6683e-06
4.97677e-06
5.30371e-06
5.64996e-06
6.01636e-06
6.40373e-06
6.81288e-06
7.2446e-06
7.69964e-06
8.1787e-06
8.68243e-06
9.2114e-06
9.76607e-06
1.03468e-05
1.09539e-05
1.15875e-05
1.22474e-05
1.29334e-05
1.3645e-05
1.43817e-05
1.51423e-05
1.59257e-05
1.67303e-05
1.75543e-05
1.83956e-05
1.92515e-05
2.01192e-05
2.09954e-05
2.18766e-05
2.27587e-05
2.36374e-05
2.45081e-05
2.53659e-05
2.62056e-05
2.70218e-05
2.78091e-05
2.85618e-05
2.92743e-05
2.99412e-05
3.0557e-05
3.11167e-05
3.16154e-05
3.20487e-05
3.24128e-05
1.72831e-06
1.84891e-06
1.97767e-06
2.11511e-06
2.26178e-06
2.41825e-06
2.58512e-06
2.76302e-06
2.9526e-06
3.15457e-06
3.36962e-06
3.59852e-06
3.84202e-06
4.10094e-06
4.37608e-06
4.6683e-06
4.97845e-06
5.30742e-06
5.65608e-06
6.02534e-06
6.41608e-06
6.82918e-06
7.26551e-06
7.72592e-06
8.21119e-06
8.72208e-06
9.25927e-06
9.82338e-06
1.04149e-05
1.10343e-05
1.16817e-05
1.23573e-05
1.30611e-05
1.37926e-05
1.45516e-05
1.53372e-05
1.61483e-05
1.69837e-05
1.78418e-05
1.87206e-05
1.96177e-05
2.05305e-05
2.14559e-05
2.23903e-05
2.333e-05
2.42707e-05
2.52078e-05
2.61364e-05
2.70512e-05
2.79466e-05
2.88171e-05
2.96566e-05
3.04593e-05
3.12192e-05
3.19304e-05
3.25872e-05
3.3184e-05
3.37158e-05
3.4178e-05
3.45663e-05
1.84252e-06
1.97108e-06
2.10835e-06
2.25487e-06
2.41123e-06
2.57804e-06
2.75594e-06
2.94559e-06
3.1477e-06
3.36301e-06
3.59228e-06
3.8363e-06
4.0959e-06
4.37192e-06
4.66524e-06
4.97677e-06
5.30742e-06
5.65812e-06
6.02982e-06
6.42348e-06
6.84004e-06
7.28044e-06
7.7456e-06
8.23643e-06
8.75376e-06
9.29841e-06
9.87111e-06
1.04725e-05
1.11031e-05
1.17634e-05
1.24536e-05
1.31739e-05
1.39241e-05
1.4704e-05
1.55131e-05
1.63506e-05
1.72154e-05
1.8106e-05
1.90208e-05
1.99576e-05
2.0914e-05
2.18871e-05
2.28736e-05
2.38698e-05
2.48716e-05
2.58745e-05
2.68735e-05
2.78634e-05
2.88386e-05
2.97933e-05
3.07213e-05
3.16163e-05
3.2472e-05
3.32821e-05
3.40403e-05
3.47404e-05
3.53767e-05
3.59437e-05
3.64364e-05
3.68503e-05
1.96356e-06
2.10057e-06
2.24685e-06
2.403e-06
2.56964e-06
2.7474e-06
2.93698e-06
3.1391e-06
3.35449e-06
3.58394e-06
3.82827e-06
4.08832e-06
4.36497e-06
4.65913e-06
4.97172e-06
5.30371e-06
5.65608e-06
6.02982e-06
6.42594e-06
6.84546e-06
7.28938e-06
7.75872e-06
8.25444e-06
8.77751e-06
9.32883e-06
9.90926e-06
1.05196e-05
1.11605e-05
1.18325e-05
1.25362e-05
1.32717e-05
1.40393e-05
1.48388e-05
1.567e-05
1.65322e-05
1.74247e-05
1.83463e-05
1.92954e-05
2.02703e-05
2.12687e-05
2.2288e-05
2.3325e-05
2.43763e-05
2.54379e-05
2.65055e-05
2.75743e-05
2.86389e-05
2.96939e-05
3.07332e-05
3.17505e-05
3.27395e-05
3.36933e-05
3.46052e-05
3.54686e-05
3.62765e-05
3.70227e-05
3.77008e-05
3.8305e-05
3.883e-05
3.92712e-05
2.09175e-06
2.2377e-06
2.39354e-06
2.55988e-06
2.73739e-06
2.92676e-06
3.12872e-06
3.34403e-06
3.57349e-06
3.81792e-06
4.0782e-06
4.35523e-06
4.64994e-06
4.9633e-06
5.2963e-06
5.64996e-06
6.02534e-06
6.42348e-06
6.84546e-06
7.29236e-06
7.76527e-06
8.26524e-06
8.79333e-06
9.35055e-06
9.93786e-06
1.05562e-05
1.12063e-05
1.18891e-05
1.2605e-05
1.33546e-05
1.41382e-05
1.49559e-05
1.58076e-05
1.6693e-05
1.76116e-05
1.85623e-05
1.9544e-05
2.05551e-05
2.15937e-05
2.26573e-05
2.3743e-05
2.48478e-05
2.59677e-05
2.70987e-05
2.8236e-05
2.93745e-05
3.05086e-05
3.16324e-05
3.27396e-05
3.38234e-05
3.48768e-05
3.5893e-05
3.68644e-05
3.77841e-05
3.86448e-05
3.94397e-05
4.01621e-05
4.08057e-05
4.13651e-05
4.1835e-05
2.2274e-06
2.38282e-06
2.54876e-06
2.72589e-06
2.91491e-06
3.11656e-06
3.33162e-06
3.56089e-06
3.80522e-06
4.06551e-06
4.34267e-06
4.63766e-06
4.95148e-06
5.28516e-06
5.63976e-06
6.01636e-06
6.41608e-06
6.84004e-06
7.28938e-06
7.76527e-06
8.26884e-06
8.80124e-06
9.36357e-06
9.95693e-06
1.05823e-05
1.12407e-05
1.19331e-05
1.26601e-05
1.34224e-05
1.42206e-05
1.5055e-05
1.59257e-05
1.68327e-05
1.77755e-05
1.87537e-05
1.97661e-05
2.08114e-05
2.18881e-05
2.2994e-05
2.41266e-05
2.52828e-05
2.64591e-05
2.76517e-05
2.8856e-05
3.0067e-05
3.12794e-05
3.24871e-05
3.36838e-05
3.48627e-05
3.60168e-05
3.71386e-05
3.82206e-05
3.92551e-05
4.02344e-05
4.11509e-05
4.19973e-05
4.27665e-05
4.3452e-05
4.40476e-05
4.4548e-05
2.37081e-06
2.53624e-06
2.71286e-06
2.9014e-06
3.10259e-06
3.31723e-06
3.54613e-06
3.79016e-06
4.05023e-06
4.32727e-06
4.62227e-06
4.93626e-06
5.27029e-06
5.62545e-06
6.00288e-06
6.40373e-06
6.82918e-06
7.28044e-06
7.75872e-06
8.26524e-06
8.80124e-06
9.36791e-06
9.96645e-06
1.0598e-05
1.12637e-05
1.19645e-05
1.27014e-05
1.34752e-05
1.42866e-05
1.51362e-05
1.60243e-05
1.69511e-05
1.79165e-05
1.892e-05
1.99611e-05
2.10387e-05
2.21514e-05
2.32974e-05
2.44745e-05
2.568e-05
2.69106e-05
2.81627e-05
2.94321e-05
3.07139e-05
3.20029e-05
3.32933e-05
3.45788e-05
3.58525e-05
3.71074e-05
3.83357e-05
3.95298e-05
4.06814e-05
4.17826e-05
4.28249e-05
4.38005e-05
4.47014e-05
4.55201e-05
4.62496e-05
4.68836e-05
4.74162e-05
2.52229e-06
2.69828e-06
2.88619e-06
3.08677e-06
3.30082e-06
3.52917e-06
3.7727e-06
4.03232e-06
4.30901e-06
4.60375e-06
4.9176e-06
5.25165e-06
5.60702e-06
5.98488e-06
6.38642e-06
6.81288e-06
7.26551e-06
7.7456e-06
8.25444e-06
8.79333e-06
9.36357e-06
9.96645e-06
1.06032e-05
1.12751e-05
1.19833e-05
1.27289e-05
1.35129e-05
1.43362e-05
1.51994e-05
1.61033e-05
1.70482e-05
1.80342e-05
1.90612e-05
2.01289e-05
2.12365e-05
2.23829e-05
2.35667e-05
2.4786e-05
2.60383e-05
2.73207e-05
2.863e-05
2.99621e-05
3.13126e-05
3.26763e-05
3.40477e-05
3.54205e-05
3.67881e-05
3.81433e-05
3.94783e-05
4.07851e-05
4.20555e-05
4.32807e-05
4.44521e-05
4.55611e-05
4.6599e-05
4.75574e-05
4.84285e-05
4.92047e-05
4.98791e-05
5.04458e-05
2.68212e-06
2.86927e-06
3.06909e-06
3.28238e-06
3.50999e-06
3.75281e-06
4.01177e-06
4.28785e-06
4.58206e-06
4.89548e-06
5.22922e-06
5.58444e-06
5.96233e-06
6.36413e-06
6.79112e-06
7.2446e-06
7.72592e-06
8.23643e-06
8.77751e-06
9.35055e-06
9.95693e-06
1.0598e-05
1.12751e-05
1.19896e-05
1.27427e-05
1.35355e-05
1.43692e-05
1.52446e-05
1.61626e-05
1.71238e-05
1.81285e-05
1.9177e-05
2.02691e-05
2.14044e-05
2.25822e-05
2.38013e-05
2.50601e-05
2.63566e-05
2.76882e-05
2.9052e-05
3.04442e-05
3.18608e-05
3.32968e-05
3.47469e-05
3.62052e-05
3.76651e-05
3.91193e-05
4.05603e-05
4.19799e-05
4.33696e-05
4.47204e-05
4.60233e-05
4.7269e-05
4.84482e-05
4.95519e-05
5.05711e-05
5.14973e-05
5.23227e-05
5.30399e-05
5.36424e-05
2.85059e-06
3.04949e-06
3.26186e-06
3.48855e-06
3.73046e-06
3.98853e-06
4.26375e-06
4.55717e-06
4.86986e-06
5.20297e-06
5.55768e-06
5.9352e-06
6.33683e-06
6.76387e-06
7.21767e-06
7.69964e-06
8.21119e-06
8.75376e-06
9.32883e-06
9.93786e-06
1.05823e-05
1.12637e-05
1.19833e-05
1.27427e-05
1.35431e-05
1.43857e-05
1.52717e-05
1.62022e-05
1.71778e-05
1.81993e-05
1.92672e-05
2.03815e-05
2.15422e-05
2.27489e-05
2.40006e-05
2.52963e-05
2.66341e-05
2.80121e-05
2.94274e-05
3.08768e-05
3.23565e-05
3.3862e-05
3.53882e-05
3.69294e-05
3.84793e-05
4.00308e-05
4.15764e-05
4.3108e-05
4.46167e-05
4.60937e-05
4.75294e-05
4.89141e-05
5.0238e-05
5.14913e-05
5.26643e-05
5.37475e-05
5.47319e-05
5.56091e-05
5.63713e-05
5.70118e-05
3.02795e-06
3.23922e-06
3.46481e-06
3.7056e-06
3.96256e-06
4.23669e-06
4.52904e-06
4.84071e-06
5.17286e-06
5.52669e-06
5.90347e-06
6.30448e-06
6.7311e-06
7.18471e-06
7.66675e-06
8.1787e-06
8.72208e-06
9.29841e-06
9.90926e-06
1.05562e-05
1.12407e-05
1.19645e-05
1.27289e-05
1.35355e-05
1.43857e-05
1.52808e-05
1.62219e-05
1.72102e-05
1.82466e-05
1.93317e-05
2.04659e-05
2.16496e-05
2.28825e-05
2.41643e-05
2.54939e-05
2.68702e-05
2.82913e-05
2.9755e-05
3.12583e-05
3.27979e-05
3.43696e-05
3.59688e-05
3.759e-05
3.92271e-05
4.08734e-05
4.25215e-05
4.41633e-05
4.57901e-05
4.73927e-05
4.89616e-05
5.04866e-05
5.19575e-05
5.33638e-05
5.4695e-05
5.5941e-05
5.70916e-05
5.81373e-05
5.9069e-05
5.98787e-05
6.0559e-05
3.21444e-06
3.43873e-06
3.6782e-06
3.93383e-06
4.20662e-06
4.49763e-06
4.80798e-06
5.13885e-06
5.49146e-06
5.86709e-06
6.26706e-06
6.69278e-06
7.14567e-06
7.62721e-06
8.13894e-06
8.68243e-06
9.25927e-06
9.87111e-06
1.05196e-05
1.12063e-05
1.19331e-05
1.27014e-05
1.35129e-05
1.43692e-05
1.52717e-05
1.62219e-05
1.72211e-05
1.82702e-05
1.93704e-05
2.05223e-05
2.17264e-05
2.2983e-05
2.42919e-05
2.56525e-05
2.70641e-05
2.85251e-05
3.00338e-05
3.15876e-05
3.31835e-05
3.48179e-05
3.64865e-05
3.81841e-05
3.99052e-05
4.16431e-05
4.33908e-05
4.51404e-05
4.68833e-05
4.86103e-05
5.03117e-05
5.19771e-05
5.35961e-05
5.51575e-05
5.66504e-05
5.80637e-05
5.93864e-05
6.06079e-05
6.1718e-05
6.27071e-05
6.35667e-05
6.42888e-05
3.41028e-06
3.64823e-06
3.90229e-06
4.17349e-06
4.4629e-06
4.77164e-06
5.1009e-06
5.45193e-06
5.82602e-06
6.22453e-06
6.64888e-06
7.10053e-06
7.58101e-06
8.09189e-06
8.6348e-06
9.2114e-06
9.82338e-06
1.04725e-05
1.11605e-05
1.18891e-05
1.26601e-05
1.34752e-05
1.43362e-05
1.52446e-05
1.62022e-05
1.72102e-05
1.82702e-05
1.93833e-05
2.05505e-05
2.17726e-05
2.30501e-05
2.43832e-05
2.57718e-05
2.72154e-05
2.87129e-05
3.0263e-05
3.18635e-05
3.3512e-05
3.52052e-05
3.69392e-05
3.87094e-05
4.05104e-05
4.23363e-05
4.41802e-05
4.60344e-05
4.78905e-05
4.97396e-05
5.15718e-05
5.33768e-05
5.51438e-05
5.68613e-05
5.85179e-05
6.01018e-05
6.16012e-05
6.30045e-05
6.43003e-05
6.5478e-05
6.65275e-05
6.74394e-05
6.82055e-05
3.61563e-06
3.86791e-06
4.13728e-06
4.42481e-06
4.73164e-06
5.05897e-06
5.40806e-06
5.78022e-06
6.17684e-06
6.59935e-06
7.04925e-06
7.5281e-06
8.03751e-06
8.57916e-06
9.15476e-06
9.76607e-06
1.04149e-05
1.11031e-05
1.18325e-05
1.2605e-05
1.34224e-05
1.42866e-05
1.51994e-05
1.61626e-05
1.71778e-05
1.82466e-05
1.93704e-05
2.05505e-05
2.1788e-05
2.30837e-05
2.44381e-05
2.58515e-05
2.73237e-05
2.88542e-05
3.04419e-05
3.20853e-05
3.37822e-05
3.553e-05
3.73251e-05
3.91635e-05
4.10403e-05
4.29498e-05
4.48857e-05
4.68406e-05
4.88064e-05
5.07743e-05
5.27348e-05
5.46773e-05
5.6591e-05
5.84643e-05
6.02853e-05
6.20417e-05
6.37209e-05
6.53106e-05
6.67984e-05
6.81723e-05
6.94209e-05
7.05335e-05
7.15003e-05
7.23126e-05
3.83064e-06
4.09793e-06
4.38331e-06
4.68794e-06
5.01302e-06
5.35982e-06
5.72967e-06
6.12396e-06
6.54416e-06
6.9918e-06
7.46845e-06
7.97578e-06
8.51548e-06
9.08934e-06
9.69917e-06
1.03468e-05
1.10343e-05
1.17634e-05
1.25362e-05
1.33546e-05
1.42206e-05
1.51362e-05
1.61033e-05
1.71238e-05
1.81993e-05
1.93317e-05
2.05223e-05
2.17726e-05
2.30837e-05
2.44564e-05
2.58914e-05
2.73888e-05
2.89486e-05
3.05701e-05
3.22522e-05
3.39933e-05
3.57912e-05
3.76429e-05
3.95447e-05
4.14925e-05
4.34809e-05
4.5504e-05
4.75549e-05
4.96261e-05
5.17088e-05
5.37938e-05
5.58708e-05
5.79288e-05
5.99563e-05
6.19411e-05
6.38703e-05
6.57311e-05
6.75103e-05
6.91945e-05
7.07707e-05
7.22263e-05
7.35492e-05
7.4728e-05
7.57523e-05
7.66129e-05
4.05541e-06
4.33837e-06
4.6405e-06
4.963e-06
5.30716e-06
5.6743e-06
6.06585e-06
6.48328e-06
6.92814e-06
7.40204e-06
7.90666e-06
8.44375e-06
9.01512e-06
9.62265e-06
1.02683e-05
1.09539e-05
1.16817e-05
1.24536e-05
1.32717e-05
1.41382e-05
1.5055e-05
1.60243e-05
1.70482e-05
1.81285e-05
1.92672e-05
2.04659e-05
2.17264e-05
2.30501e-05
2.44381e-05
2.58914e-05
2.74105e-05
2.89958e-05
3.06471e-05
3.23638e-05
3.41446e-05
3.59879e-05
3.78912e-05
3.98515e-05
4.1865e-05
4.3927e-05
4.60321e-05
4.81739e-05
5.03452e-05
5.25379e-05
5.47428e-05
5.69501e-05
5.9149e-05
6.13278e-05
6.34743e-05
6.55754e-05
6.76179e-05
6.95879e-05
7.14714e-05
7.32544e-05
7.49232e-05
7.64642e-05
7.78647e-05
7.91126e-05
8.0197e-05
8.11081e-05
4.28995e-06
4.58929e-06
4.90889e-06
5.25004e-06
5.6141e-06
6.00248e-06
6.41668e-06
6.85825e-06
7.32884e-06
7.83014e-06
8.36395e-06
8.9321e-06
9.53652e-06
1.01792e-05
1.08621e-05
1.15875e-05
1.23573e-05
1.31739e-05
1.40393e-05
1.49559e-05
1.59257e-05
1.69511e-05
1.80342e-05
1.9177e-05
2.03815e-05
2.16496e-05
2.2983e-05
2.43832e-05
2.58515e-05
2.73888e-05
2.89958e-05
3.06729e-05
3.24196e-05
3.42356e-05
3.61194e-05
3.80693e-05
4.00827e-05
4.21564e-05
4.42863e-05
4.64676e-05
4.86944e-05
5.09601e-05
5.3257e-05
5.55764e-05
5.79089e-05
6.02439e-05
6.25699e-05
6.48747e-05
6.71453e-05
6.93681e-05
7.15287e-05
7.36126e-05
7.5605e-05
7.74912e-05
7.92564e-05
8.08866e-05
8.2368e-05
8.36882e-05
8.48353e-05
8.57991e-05
4.53426e-06
4.85064e-06
5.18845e-06
5.54903e-06
5.93382e-06
6.34432e-06
6.7821e-06
7.24882e-06
7.74621e-06
8.27606e-06
8.84027e-06
9.44078e-06
1.00796e-05
1.07589e-05
1.14807e-05
1.22474e-05
1.30611e-05
1.39241e-05
1.48388e-05
1.58076e-05
1.68327e-05
1.79165e-05
1.90612e-05
2.02691e-05
2.15422e-05
2.28825e-05
2.42919e-05
2.57718e-05
2.73237e-05
2.89486e-05
3.06471e-05
3.24196e-05
3.42659e-05
3.61853e-05
3.81764e-05
4.02373e-05
4.23654e-05
4.45572e-05
4.68084e-05
4.91139e-05
5.14675e-05
5.38622e-05
5.62899e-05
5.87415e-05
6.12068e-05
6.36747e-05
6.61332e-05
6.85693e-05
7.09692e-05
7.33185e-05
7.56022e-05
7.78048e-05
7.99107e-05
8.19042e-05
8.377e-05
8.5493e-05
8.70589e-05
8.84542e-05
8.96666e-05
9.06853e-05
4.78824e-06
5.12234e-06
5.47907e-06
5.85985e-06
6.26619e-06
6.69968e-06
7.16199e-06
7.65485e-06
8.1801e-06
8.73963e-06
9.33544e-06
9.96959e-06
1.06442e-05
1.13615e-05
1.21238e-05
1.29334e-05
1.37926e-05
1.4704e-05
1.567e-05
1.6693e-05
1.77755e-05
1.892e-05
2.01289e-05
2.14044e-05
2.27489e-05
2.41643e-05
2.56525e-05
2.72154e-05
2.88542e-05
3.05701e-05
3.23638e-05
3.42356e-05
3.61853e-05
3.82121e-05
4.03148e-05
4.24911e-05
4.47384e-05
4.7053e-05
4.94303e-05
5.18649e-05
5.43504e-05
5.68792e-05
5.94429e-05
6.20318e-05
6.46352e-05
6.72413e-05
6.98375e-05
7.24101e-05
7.49444e-05
7.74253e-05
7.98369e-05
8.21629e-05
8.43867e-05
8.64919e-05
8.84622e-05
9.02817e-05
9.19353e-05
9.34087e-05
9.46891e-05
9.57649e-05
5.05172e-06
5.4042e-06
5.78055e-06
6.18229e-06
6.61099e-06
7.06834e-06
7.55608e-06
8.07606e-06
8.63021e-06
9.22053e-06
9.84913e-06
1.05182e-05
1.12299e-05
1.19867e-05
1.27909e-05
1.3645e-05
1.45516e-05
1.55131e-05
1.65322e-05
1.76116e-05
1.87537e-05
1.99611e-05
2.12365e-05
2.25822e-05
2.40006e-05
2.54939e-05
2.70641e-05
2.87129e-05
3.04419e-05
3.22522e-05
3.41446e-05
3.61194e-05
3.81764e-05
4.03148e-05
4.25331e-05
4.48292e-05
4.72002e-05
4.96421e-05
5.21502e-05
5.47188e-05
5.7341e-05
6.0009e-05
6.27138e-05
6.54451e-05
6.81917e-05
7.09413e-05
7.36804e-05
7.63945e-05
7.90683e-05
8.16857e-05
8.42299e-05
8.66839e-05
8.90301e-05
9.12512e-05
9.33299e-05
9.52495e-05
9.69941e-05
9.85486e-05
9.98994e-05
0.000101034
5.32443e-06
5.69594e-06
6.09261e-06
6.51603e-06
6.96788e-06
7.44991e-06
7.96399e-06
8.51204e-06
9.09611e-06
9.7183e-06
1.03808e-05
1.1086e-05
1.18362e-05
1.26338e-05
1.34814e-05
1.43817e-05
1.53372e-05
1.63506e-05
1.74247e-05
1.85623e-05
1.97661e-05
2.10387e-05
2.23829e-05
2.38013e-05
2.52963e-05
2.68702e-05
2.85251e-05
3.0263e-05
3.20853e-05
3.39933e-05
3.59879e-05
3.80693e-05
4.02373e-05
4.24911e-05
4.48292e-05
4.72493e-05
4.97482e-05
5.2322e-05
5.49655e-05
5.76728e-05
6.04366e-05
6.32486e-05
6.60993e-05
6.89781e-05
7.1873e-05
7.4771e-05
7.7658e-05
8.05186e-05
8.33367e-05
8.60954e-05
8.8777e-05
9.13635e-05
9.38364e-05
9.61773e-05
9.83683e-05
0.000100392
0.00010223
0.000103869
0.000105292
0.000106489
5.60603e-06
5.99719e-06
6.41484e-06
6.86066e-06
7.3364e-06
7.84393e-06
8.38519e-06
8.96223e-06
9.57718e-06
1.02323e-05
1.09299e-05
1.16723e-05
1.24621e-05
1.3302e-05
1.41944e-05
1.51423e-05
1.61483e-05
1.72154e-05
1.83463e-05
1.9544e-05
2.08114e-05
2.21514e-05
2.35667e-05
2.50601e-05
2.66341e-05
2.82913e-05
3.00338e-05
3.18635e-05
3.37822e-05
3.57912e-05
3.78912e-05
4.00827e-05
4.23654e-05
4.47384e-05
4.72002e-05
4.97482e-05
5.23793e-05
5.50892e-05
5.78725e-05
6.0723e-05
6.36329e-05
6.65937e-05
6.95952e-05
7.26262e-05
7.56743e-05
7.87255e-05
8.17652e-05
8.47771e-05
8.77443e-05
9.06489e-05
9.34723e-05
9.61955e-05
9.87992e-05
0.000101264
0.000103571
0.000105701
0.000107637
0.000109362
0.000110861
0.000112121
5.89606e-06
6.30746e-06
6.74672e-06
7.21559e-06
7.71595e-06
8.24974e-06
8.819e-06
9.4259e-06
1.00727e-05
1.07617e-05
1.14953e-05
1.22762e-05
1.31069e-05
1.39902e-05
1.49288e-05
1.59257e-05
1.69837e-05
1.8106e-05
1.92954e-05
2.05551e-05
2.18881e-05
2.32974e-05
2.4786e-05
2.63566e-05
2.80121e-05
2.9755e-05
3.15876e-05
3.3512e-05
3.553e-05
3.76429e-05
3.98515e-05
4.21564e-05
4.45572e-05
4.7053e-05
4.96421e-05
5.2322e-05
5.50892e-05
5.79393e-05
6.08666e-05
6.38645e-05
6.6925e-05
7.00389e-05
7.31957e-05
7.63836e-05
7.95893e-05
8.27984e-05
8.59953e-05
8.91631e-05
9.22838e-05
9.53386e-05
9.83081e-05
0.000101172
0.000103911
0.000106503
0.000108929
0.00011117
0.000113206
0.00011502
0.000116597
0.000117921
6.19396e-06
6.62614e-06
7.08759e-06
7.58016e-06
8.10579e-06
8.66655e-06
9.26458e-06
9.90213e-06
1.05816e-05
1.13054e-05
1.20761e-05
1.28964e-05
1.37691e-05
1.4697e-05
1.56831e-05
1.67303e-05
1.78418e-05
1.90208e-05
2.02703e-05
2.15937e-05
2.2994e-05
2.44745e-05
2.60383e-05
2.76882e-05
2.94274e-05
3.12583e-05
3.31835e-05
3.52052e-05
3.73251e-05
3.95447e-05
4.1865e-05
4.42863e-05
4.68084e-05
4.94303e-05
5.21502e-05
5.49655e-05
5.78725e-05
6.08666e-05
6.39418e-05
6.70912e-05
7.03064e-05
7.35776e-05
7.68939e-05
8.02428e-05
8.36105e-05
8.69818e-05
9.03402e-05
9.3668e-05
9.69463e-05
0.000100156
0.000103275
0.000106284
0.000109161
0.000111884
0.000114433
0.000116786
0.000118925
0.000120831
0.000122488
0.000123879
6.49903e-06
6.9525e-06
7.43668e-06
7.95351e-06
8.50503e-06
9.09341e-06
9.72089e-06
1.03898e-05
1.11028e-05
1.18622e-05
1.26709e-05
1.35316e-05
1.44473e-05
1.54209e-05
1.64555e-05
1.75543e-05
1.87206e-05
1.99576e-05
2.12687e-05
2.26573e-05
2.41266e-05
2.568e-05
2.73207e-05
2.9052e-05
3.08768e-05
3.27979e-05
3.48179e-05
3.69392e-05
3.91635e-05
4.14925e-05
4.3927e-05
4.64676e-05
4.91139e-05
5.18649e-05
5.47188e-05
5.76728e-05
6.0723e-05
6.38645e-05
6.70912e-05
7.03957e-05
7.37692e-05
7.72016e-05
8.06812e-05
8.41951e-05
8.77286e-05
9.1266e-05
9.47898e-05
9.82815e-05
0.000101721
0.000105089
0.000108362
0.000111519
0.000114537
0.000117395
0.000120069
0.000122538
0.000124783
0.000126783
0.000128521
0.000129981
6.81048e-06
7.28568e-06
7.79306e-06
8.33466e-06
8.91261e-06
9.52918e-06
1.01867e-05
1.08878e-05
1.16348e-05
1.24307e-05
1.32781e-05
1.41801e-05
1.51396e-05
1.61599e-05
1.72441e-05
1.83956e-05
1.96177e-05
2.0914e-05
2.2288e-05
2.3743e-05
2.52828e-05
2.69106e-05
2.863e-05
3.04442e-05
3.23565e-05
3.43696e-05
3.64865e-05
3.87094e-05
4.10403e-05
4.34809e-05
4.60321e-05
4.86944e-05
5.14675e-05
5.43504e-05
5.7341e-05
6.04366e-05
6.36329e-05
6.6925e-05
7.03064e-05
7.37692e-05
7.73044e-05
8.09012e-05
8.45476e-05
8.82299e-05
9.19328e-05
9.56396e-05
9.93323e-05
0.000102991
0.000106596
0.000110125