/*--------------------------------*- C++ -*----------------------------------*\
| =========                 |                                                 |
| \\      /  F ield         | OpenFOAM: The Open Source CFD Toolbox           |
|  \\    /   O peration     | Version:  2212                                  |
|   \\  /    A nd           | Website:  www.openfoam.com                      |
|    \\/     M anipulation  |                                                 |
\*---------------------------------------------------------------------------*/
FoamFile
{
    version     2.0;
    format      ascii;
    arch        "LSB;label=32;scalar=64";
    class       volScalarField;
    location    "5000";
    object      C_mu_eff;
}
// * * * * * * * * * * * * * * * * * * * * * * * * * * * * * * * * * * * * * //

dimensions      [0 0 0 0 0 0 0];

internalField   nonuniform List<scalar> 
10368
(
0.0900093
0.0900095
0.0900093
0.090009
0.0900088
0.0900086
0.0900084
0.090008
0.0900076
0.0900069
0.0900061
0.090005
0.090004
0.0900027
0.0900017
0.0900007
0.0900003
0.09
0.09
0.0900008
0.090004
0.0900124
0.0900233
0.0900309
0.0900333
0.0900355
0.0900369
0.0900356
0.0900332
0.0900312
0.0900295
0.0900283
0.0900273
0.0900267
0.0900259
0.0900252
0.0900244
0.0900237
0.0900228
0.0900221
0.090021
0.0900202
0.0900193
0.0900185
0.0900175
0.0900166
0.0900156
0.0900145
0.0900131
0.0900118
0.0900104
0.0900091
0.0900075
0.0900056
0.0900038
0.0900024
0.090001
0.0900001
0.0900001
0.0900002
0.0900001
0.0900001
0.0900001
0.0900001
0.09
0.09
0.09
0.09
0.09
0.09
0.09
0.09
0.09
0.09
0.09
0.09
0.09
0.09
0.09
0.09
0.09
0.09
0.09
0.09
0.09
0.0900001
0.0900001
0.0900001
0.0900001
0.0900001
0.0900001
0.0900001
0.0900001
0.0900001
0.0900001
0.0900001
0.0900001
0.0900002
0.0900002
0.0900002
0.0900002
0.0900002
0.0900002
0.0900003
0.0900003
0.0900003
0.0900003
0.0900003
0.0900004
0.0900004
0.0900004
0.0900005
0.0900005
0.0900005
0.0900005
0.0900006
0.0900006
0.0900006
0.0900007
0.0900007
0.0900007
0.0900008
0.0900008
0.0900008
0.0900009
0.0900009
0.0900009
0.0900009
0.090001
0.090001
0.0900011
0.0900011
0.0900012
0.0900013
0.0900014
0.0900015
0.0900015
0.0900016
0.0900015
0.0900016
0.0900017
0.0900017
0.0900018
0.0900018
0.0900019
0.0900019
0.0900019
0.0900019
0.090002
0.090002
0.090002
0.090002
0.0900019
0.0900019
0.0900019
0.0900018
0.0900017
0.0900016
0.0900015
0.0900013
0.0900011
0.0900009
0.0900006
0.0900004
0.0900002
0.09
0.09
0.0900001
0.0900003
0.0900008
0.0900013
0.0900021
0.0900029
0.0900037
0.0900045
0.0900052
0.0900058
0.0900063
0.0900067
0.090007
0.0900072
0.0900074
0.0900075
0.0900076
0.0900076
0.0900076
0.0900076
0.0900076
0.0900075
0.0900075
0.0900074
0.0900074
0.0903165
0.0903243
0.0903175
0.0903083
0.0903021
0.0902943
0.0902868
0.0902753
0.090261
0.0902383
0.0902128
0.0901757
0.0901402
0.0900967
0.0900608
0.0900263
0.090012
0.0900001
0.09
0.0900266
0.0901287
0.0903843
0.0907131
0.0909507
0.091044
0.0911188
0.0911652
0.0911391
0.0910748
0.0910194
0.0909687
0.0909315
0.0909006
0.0908821
0.0908564
0.090836
0.0908084
0.0907882
0.0907591
0.0907375
0.0907041
0.0906797
0.0906489
0.0906244
0.0905929
0.0905653
0.0905319
0.090499
0.0904537
0.0904128
0.0903678
0.0903234
0.090271
0.0902093
0.0901474
0.0900965
0.0900463
0.0900072
0.0900005
0.0900045
0.0900042
0.0900031
0.0900022
0.0900018
0.0900015
0.0900008
0.0900004
0.0900003
0.0900002
0.0900002
0.0900002
0.0900003
0.0900004
0.0900004
0.0900005
0.0900005
0.0900006
0.0900007
0.0900008
0.090001
0.0900011
0.0900012
0.0900014
0.0900015
0.0900017
0.0900019
0.0900021
0.0900023
0.0900025
0.0900027
0.090003
0.0900033
0.0900036
0.090004
0.0900043
0.0900047
0.0900052
0.0900056
0.0900061
0.0900067
0.0900072
0.0900078
0.0900084
0.0900091
0.0900098
0.0900105
0.0900113
0.0900121
0.0900129
0.0900138
0.0900147
0.0900156
0.0900167
0.0900177
0.0900189
0.09002
0.0900211
0.0900222
0.0900234
0.0900245
0.0900256
0.0900266
0.0900276
0.0900285
0.0900294
0.0900303
0.0900312
0.0900322
0.0900333
0.0900347
0.0900363
0.0900387
0.0900417
0.0900448
0.090047
0.0900495
0.0900523
0.0900533
0.0900525
0.0900533
0.0900564
0.0900581
0.0900597
0.0900611
0.0900623
0.0900634
0.0900643
0.090065
0.0900654
0.0900656
0.0900655
0.090065
0.0900641
0.0900629
0.0900616
0.0900599
0.0900575
0.0900538
0.0900487
0.0900424
0.0900351
0.0900273
0.0900192
0.0900117
0.0900053
0.0900011
0.0900001
0.0900036
0.0900123
0.0900269
0.090047
0.0900717
0.090099
0.0901271
0.0901539
0.0901781
0.0901987
0.0902161
0.0902294
0.0902402
0.0902474
0.0902533
0.0902564
0.0902595
0.0902598
0.0902611
0.0902596
0.0902598
0.0902571
0.0902567
0.0902532
0.0902538
0.0926003
0.0926799
0.0926303
0.0925634
0.0925176
0.0924596
0.0924049
0.0923193
0.0922127
0.0920407
0.0918443
0.0915506
0.0912632
0.0908952
0.0905819
0.0902647
0.090124
0.0900029
0.0900002
0.0902407
0.0910579
0.0928591
0.0948059
0.0960045
0.0964735
0.096794
0.0969828
0.0969222
0.0967047
0.0964949
0.0962894
0.0961312
0.0959941
0.0959105
0.0957937
0.0957006
0.0955697
0.0954733
0.0953294
0.0952226
0.0950515
0.0949239
0.0947575
0.0946234
0.0944465
0.0942897
0.0940932
0.0938988
0.0936215
0.0933612
0.0930638
0.0927605
0.0923908
0.0919353
0.0914436
0.0910052
0.0905415
0.0901238
0.0900001
0.0900258
0.0900313
0.0900254
0.0900192
0.0900156
0.0900128
0.0900073
0.0900038
0.0900024
0.090002
0.0900021
0.0900023
0.0900028
0.0900034
0.090004
0.0900045
0.0900051
0.0900059
0.0900068
0.0900079
0.090009
0.0900101
0.0900113
0.0900126
0.0900141
0.0900157
0.0900174
0.0900192
0.0900212
0.0900233
0.0900255
0.090028
0.0900307
0.0900337
0.0900371
0.0900406
0.0900443
0.0900483
0.0900526
0.0900573
0.0900623
0.0900673
0.0900726
0.0900782
0.0900842
0.0900907
0.0900976
0.0901047
0.0901119
0.0901194
0.0901273
0.0901355
0.0901444
0.0901538
0.0901635
0.0901735
0.0901835
0.0901934
0.0902035
0.090214
0.0902244
0.0902342
0.0902431
0.0902517
0.0902601
0.0902682
0.0902762
0.0902845
0.0902938
0.0903042
0.0903163
0.0903313
0.0903511
0.0903774
0.090403
0.0904222
0.0904431
0.0904656
0.090474
0.0904694
0.0904762
0.0905007
0.0905146
0.0905279
0.090539
0.0905488
0.0905571
0.0905639
0.090569
0.090572
0.0905726
0.0905707
0.0905651
0.0905562
0.0905451
0.0905326
0.0905167
0.0904941
0.0904609
0.090416
0.0903608
0.0902975
0.0902295
0.0901601
0.0900951
0.0900411
0.090007
0.0900024
0.0900373
0.0901197
0.0902533
0.0904342
0.0906512
0.0908872
0.0911258
0.0913494
0.0915485
0.0917149
0.0918541
0.0919602
0.092045
0.0921015
0.092148
0.0921721
0.092196
0.0921988
0.092209
0.0921974
0.0921992
0.0921781
0.0921754
0.0921485
0.092153
0.0979937
0.0982137
0.0981365
0.0980286
0.0979525
0.0978537
0.0977581
0.0976031
0.0974013
0.0970515
0.096618
0.0958892
0.0950827
0.0938898
0.0927247
0.0913626
0.0906702
0.090029
0.0900072
0.0911226
0.0940763
0.0981527
0.0998111
0.0996822
0.0994231
0.0992027
0.0990507
0.0990958
0.0992694
0.099418
0.099542
0.099624
0.0996856
0.0997183
0.0997585
0.0997861
0.0998188
0.0998378
0.0998586
0.0998676
0.0998716
0.0998658
0.0998459
0.0998202
0.0997718
0.0997161
0.0996264
0.0995189
0.0993267
0.0991033
0.0987921
0.098412
0.0978583
0.0970226
0.0958788
0.0945983
0.0929285
0.0909446
0.0900336
0.0900639
0.090119
0.0901104
0.0900875
0.0900717
0.090059
0.090034
0.0900181
0.0900119
0.0900102
0.0900106
0.0900116
0.090014
0.090017
0.0900199
0.0900227
0.0900258
0.0900297
0.090034
0.0900393
0.0900448
0.0900504
0.0900564
0.0900631
0.0900704
0.0900782
0.0900867
0.0900958
0.0901055
0.0901159
0.0901271
0.0901395
0.090153
0.090168
0.0901845
0.090202
0.0902202
0.0902397
0.0902607
0.0902837
0.0903077
0.0903321
0.0903577
0.0903847
0.0904136
0.0904444
0.090477
0.0905106
0.090545
0.0905802
0.0906172
0.090656
0.0906971
0.0907405
0.0907853
0.090831
0.0908766
0.0909217
0.0909673
0.0910142
0.0910605
0.0911038
0.0911439
0.0911823
0.0912199
0.0912561
0.0912923
0.0913298
0.0913715
0.0914178
0.0914711
0.0915357
0.091617
0.0917255
0.0918263
0.0919035
0.0919848
0.0920671
0.0921003
0.0920905
0.0921163
0.0922059
0.0922577
0.0923057
0.0923451
0.0923792
0.092407
0.0924288
0.0924431
0.0924492
0.0924458
0.0924316
0.0924032
0.0923615
0.0923102
0.0922526
0.0921798
0.09208
0.0919381
0.0917492
0.0915178
0.0912512
0.0909627
0.0906665
0.0903881
0.0901591
0.0900208
0.0900194
0.0901991
0.0905884
0.091187
0.0919544
0.0928176
0.0936888
0.0945014
0.0952028
0.0957795
0.096228
0.0965799
0.0968344
0.0970288
0.0971548
0.0972554
0.0973075
0.0973577
0.0973646
0.097386
0.0973636
0.0973675
0.0973256
0.0973204
0.097266
0.0972755
0.0993346
0.0991268
0.0991913
0.0992766
0.0993325
0.0994005
0.0994615
0.0995507
0.0996494
0.0997772
0.0998632
0.099838
0.0995662
0.0986678
0.0971562
0.0943894
0.0924181
0.0901767
0.0900717
0.0933726
0.0984313
0.0994352
0.0956445
0.0928292
0.0917603
0.0912016
0.0909183
0.0911165
0.0916886
0.0922041
0.0926646
0.0930029
0.0932862
0.0934479
0.0936756
0.0938524
0.0941079
0.0942883
0.0945601
0.0947504
0.095071
0.0953035
0.0956117
0.0958508
0.0961725
0.0964478
0.0967976
0.0971212
0.0975929
0.0980188
0.098483
0.0989096
0.0993493
0.0997352
0.0998347
0.0993848
0.0978484
0.0939686
0.0904559
0.0900677
0.0902976
0.0903329
0.0902802
0.0902335
0.0901919
0.0901125
0.0900621
0.090042
0.0900364
0.0900381
0.0900419
0.0900503
0.0900611
0.0900713
0.0900813
0.0900924
0.0901063
0.0901219
0.0901404
0.0901596
0.0901795
0.0902009
0.0902244
0.0902501
0.0902778
0.0903077
0.0903395
0.0903737
0.0904103
0.0904494
0.0904927
0.0905398
0.0905914
0.0906478
0.0907074
0.0907693
0.0908353
0.0909056
0.0909817
0.0910609
0.091141
0.0912245
0.0913118
0.0914045
0.0915024
0.0916044
0.091709
0.0918151
0.0919233
0.0920354
0.0921519
0.0922737
0.0924002
0.092529
0.0926585
0.0927863
0.0929115
0.0930364
0.0931618
0.0932838
0.093397
0.0935016
0.0936006
0.0936966
0.0937887
0.0938807
0.0939748
0.0940778
0.0941904
0.0943178
0.094467
0.094641
0.0948803
0.0950776
0.095232
0.0953863
0.0955283
0.0955879
0.0955818
0.0956256
0.095775
0.0958596
0.0959339
0.0959916
0.0960377
0.0960708
0.0960914
0.0960964
0.0960861
0.0960563
0.0960047
0.0959253
0.0958189
0.0956895
0.0955403
0.0953544
0.0951088
0.0947735
0.0943346
0.0937917
0.093151
0.0924382
0.0916863
0.0909652
0.0903707
0.0900321
0.0900897
0.0906562
0.0917579
0.0932905
0.0950159
0.0966503
0.097971
0.0989
0.0994609
0.0997489
0.0998605
0.0998764
0.0998471
0.099801
0.0997595
0.0997204
0.0996969
0.0996738
0.099669
0.0996585
0.0996672
0.0996651
0.099682
0.099684
0.0997051
0.0997013
0.0936762
0.093245
0.0933835
0.0935838
0.0937205
0.0938972
0.0940674
0.0943403
0.0946888
0.0952733
0.0959604
0.0970397
0.0980978
0.0993376
0.0998784
0.0985988
0.0959868
0.090779
0.0904108
0.0967011
0.0999154
0.0949658
0.0871437
0.0833481
0.0824584
0.0822533
0.0822732
0.0826995
0.0835754
0.0843351
0.0849735
0.0854312
0.0858056
0.0860034
0.0863016
0.0865313
0.0868875
0.0871291
0.0874056
0.0875837
0.0879225
0.0881606
0.0884959
0.0887482
0.0891155
0.0894295
0.0898597
0.0902521
0.0909098
0.0915475
0.0923227
0.0931042
0.0940796
0.0953797
0.0969801
0.09845
0.0996771
0.0985977
0.0924896
0.0900055
0.0905255
0.0907836
0.0907152
0.0906108
0.0905039
0.0903011
0.0901736
0.0901215
0.0901068
0.0901125
0.0901245
0.090149
0.0901805
0.0902098
0.0902391
0.0902716
0.0903119
0.0903571
0.0904098
0.0904646
0.0905213
0.0905824
0.0906491
0.0907217
0.0907995
0.0908831
0.0909716
0.0910665
0.0911672
0.0912747
0.091392
0.0915183
0.0916548
0.0918015
0.0919547
0.0921125
0.0922781
0.0924515
0.092635
0.0928227
0.0930103
0.0932022
0.0933992
0.0936036
0.0938143
0.0940287
0.0942432
0.0944566
0.0946689
0.0948835
0.0951002
0.0953198
0.0955406
0.0957578
0.095969
0.096171
0.0963627
0.0965472
0.0967244
0.0968905
0.0970398
0.0971747
0.097298
0.0974142
0.0975229
0.097629
0.0977346
0.0978462
0.0979641
0.0980926
0.0982337
0.0983797
0.0985885
0.0987226
0.0988296
0.098925
0.0989972
0.0990288
0.0990312
0.0990456
0.099113
0.0991467
0.0991715
0.0991849
0.0991894
0.0991843
0.0991692
0.0991416
0.0991024
0.099045
0.0989677
0.0988637
0.0987302
0.0985642
0.0983601
0.0980992
0.0977559
0.0972946
0.0966897
0.0959195
0.0949714
0.0938714
0.0926698
0.0914906
0.0905221
0.0900209
0.0902482
0.0913606
0.093271
0.0955925
0.0977442
0.0992294
0.0998492
0.0997184
0.0991074
0.0982884
0.0974687
0.096729
0.096139
0.0956703
0.0953476
0.0950955
0.0949494
0.0948233
0.0947838
0.0947284
0.0947517
0.0947382
0.0947983
0.0948054
0.0948887
0.0948711
0.0877037
0.0873233
0.0874285
0.0876007
0.0877157
0.0878693
0.0880236
0.0882792
0.0886202
0.0892167
0.0899608
0.0912513
0.0926955
0.0949669
0.0972872
0.0996977
0.099406
0.092545
0.0915336
0.099092
0.0986936
0.091712
0.0792059
0.0773277
0.0770972
0.07735
0.0776599
0.0781365
0.0789629
0.079661
0.0801988
0.0805593
0.0808375
0.080961
0.0811602
0.0813027
0.0815456
0.0816893
0.0819405
0.0820732
0.0823918
0.0825965
0.0829173
0.0831337
0.0834953
0.0837849
0.0842361
0.0846018
0.0853552
0.086114
0.0871031
0.0878244
0.0887288
0.0900283
0.0918797
0.0938833
0.0963478
0.0995898
0.0966694
0.0903238
0.0906021
0.0914854
0.0915283
0.0913565
0.0911324
0.0906957
0.0904237
0.0903087
0.0902761
0.0902932
0.0903258
0.0903889
0.0904683
0.0905425
0.0906164
0.090699
0.0907998
0.090912
0.0910402
0.0911725
0.0913095
0.0914559
0.0916139
0.0917836
0.0919632
0.0921533
0.0923523
0.0925617
0.0927806
0.0930103
0.0932546
0.0935112
0.0937803
0.0940599
0.0943437
0.0946279
0.0949158
0.0952062
0.0954996
0.0957888
0.0960674
0.0963405
0.0966091
0.0968746
0.0971345
0.0973854
0.0976233
0.0978482
0.0980602
0.0982622
0.0984538
0.0986347
0.0988036
0.0989574
0.0990954
0.0992177
0.0993247
0.0994184
0.0994992
0.0995682
0.0996259
0.0996746
0.0997149
0.0997499
0.0997801
0.0998072
0.0998308
0.0998518
0.0998704
0.0998854
0.0998924
0.0998874
0.0998804
0.0998766
0.0998726
0.0998615
0.0998592
0.0998862
0.0999074
0.0998886
0.0998711
0.0998729
0.0998746
0.0998769
0.0998784
0.0998781
0.0998744
0.0998653
0.0998482
0.0998186
0.0997719
0.0997005
0.0995969
0.0994505
0.0992459
0.0989619
0.0985731
0.0980471
0.0973603
0.0964836
0.0953989
0.0941412
0.092779
0.0914681
0.090441
0.0900019
0.0904359
0.0918662
0.0940986
0.096602
0.0986761
0.0997701
0.0997042
0.0986699
0.0970662
0.0952882
0.0936433
0.0922357
0.0911485
0.0903216
0.0897325
0.0893016
0.0890409
0.0888379
0.0887484
0.08866
0.0886563
0.0886313
0.0886696
0.0886735
0.0887392
0.0887197
0.083067
0.0826607
0.0827231
0.0828595
0.0829449
0.083066
0.0831957
0.0834214
0.08374
0.0843261
0.0850995
0.0865867
0.0880565
0.0902994
0.0928591
0.0970477
0.0994323
0.0957669
0.0937199
0.099931
0.0981906
0.0928338
0.0755889
0.0746227
0.0746973
0.0752179
0.0757051
0.0762017
0.0769879
0.0776804
0.0781884
0.0785111
0.0787516
0.0788364
0.0789826
0.0790711
0.0792537
0.0793364
0.0795349
0.0796032
0.0798497
0.0799834
0.0802297
0.0803592
0.0806298
0.0808071
0.0811504
0.0813485
0.0819057
0.0824515
0.08322
0.0839516
0.0848657
0.086253
0.0881495
0.0900736
0.0922943
0.0969625
0.0996086
0.0922609
0.0903028
0.0921951
0.0927269
0.0925808
0.0922117
0.0914175
0.0909288
0.0907121
0.0906501
0.0906969
0.0907769
0.0909232
0.0911
0.0912671
0.0914311
0.0916145
0.0918325
0.0920718
0.0923358
0.092604
0.0928775
0.0931637
0.0934642
0.0937774
0.0940992
0.094428
0.0947609
0.0950974
0.0954362
0.0957768
0.0961204
0.0964627
0.0968006
0.0971288
0.0974425
0.0977378
0.0980163
0.0982765
0.0985171
0.0987369
0.0989326
0.0991079
0.0992647
0.0994036
0.0995239
0.099626
0.09971
0.0997782
0.0998312
0.0998704
0.0998964
0.0999094
0.0999113
0.0999043
0.0998906
0.0998732
0.0998528
0.0998286
0.0998032
0.0997824
0.0997694
0.0997603
0.0997529
0.0997474
0.099744
0.0997391
0.0997307
0.0997164
0.0996973
0.0996697
0.0996273
0.0995619
0.0994996
0.0995229
0.099533
0.0995411
0.0995942
0.0996848
0.0997383
0.099718
0.0997286
0.0997622
0.0997945
0.0998242
0.0998496
0.0998686
0.0998784
0.0998762
0.0998576
0.0998171
0.0997483
0.0996423
0.0994903
0.0992783
0.0989848
0.0985902
0.0980767
0.0974274
0.0966372
0.0956903
0.0945853
0.0933753
0.0921401
0.0910277
0.0902382
0.0900144
0.090568
0.0919771
0.0940791
0.0964535
0.098513
0.0997121
0.0997434
0.098635
0.0967036
0.0943831
0.0921009
0.0900673
0.088446
0.0871585
0.0858544
0.0849941
0.0844821
0.0841221
0.083936
0.0837874
0.0837363
0.0836911
0.0836907
0.0836891
0.0837207
0.0836993
0.0809423
0.0805411
0.0805586
0.0806388
0.0806821
0.0807509
0.0808311
0.08098
0.0811992
0.081617
0.0821665
0.0832706
0.0846134
0.087261
0.0895611
0.0939555
0.0971927
0.0987367
0.0961534
0.100209
0.098999
0.0958629
0.0774733
0.0737
0.0737495
0.0744169
0.0750177
0.0755365
0.0762888
0.0770351
0.0775826
0.077923
0.0781786
0.0782548
0.0783847
0.0784432
0.0786063
0.0786541
0.0788281
0.0788483
0.0790517
0.0791354
0.079343
0.0794084
0.0796274
0.0797162
0.0800005
0.080064
0.0804732
0.0808498
0.0814469
0.0820124
0.0826713
0.083571
0.0854187
0.0876042
0.08922
0.0937313
0.099584
0.0957427
0.090038
0.0923281
0.0939215
0.0941023
0.093689
0.0925176
0.0918238
0.0914979
0.0914047
0.0915204
0.0916962
0.0919986
0.0923361
0.0926647
0.0929731
0.0933134
0.0937002
0.09411
0.0945372
0.0949538
0.0953623
0.0957689
0.0961728
0.0965684
0.0969503
0.0973143
0.0976585
0.0979803
0.0982812
0.0985593
0.0988135
0.0990428
0.0992442
0.0994163
0.0995629
0.0996842
0.0997808
0.0998542
0.0999052
0.0999415
0.099964
0.0999718
0.0999672
0.0999498
0.0999224
0.0998883
0.0998504
0.0998102
0.0997665
0.0997174
0.0996654
0.0996105
0.0995563
0.0995083
0.0994677
0.0994367
0.099414
0.0993949
0.0993848
0.0993903
0.099413
0.0994408
0.0994712
0.0995031
0.0995368
0.0995662
0.0995893
0.0996037
0.0996128
0.0996128
0.0995961
0.0995228
0.0995399
0.0996093
0.0996531
0.0996849
0.0997532
0.0998569
0.0999191
0.0998788
0.0998669
0.0998787
0.0998786
0.0998678
0.0998433
0.0998034
0.0997458
0.0996649
0.099558
0.0994185
0.0992414
0.0990186
0.098744
0.0984031
0.0979746
0.0974487
0.0968215
0.0960933
0.0952744
0.0943614
0.0933663
0.0923474
0.0913787
0.0905766
0.0900846
0.0900644
0.0906525
0.0919049
0.0937313
0.0958682
0.0978984
0.0993601
0.0998788
0.0992937
0.097701
0.0954074
0.0928526
0.0903527
0.0882031
0.0861212
0.0842056
0.0829499
0.0822093
0.0817227
0.0814557
0.0812658
0.081175
0.0811159
0.081078
0.0810711
0.0810614
0.0810439
0.0803839
0.0799932
0.0799887
0.0800278
0.0800423
0.0800758
0.0801218
0.0802188
0.0803682
0.0806732
0.081061
0.0819028
0.0829458
0.0852187
0.0877649
0.0919521
0.0951224
0.0998912
0.09799
0.100403
0.100105
0.0981418
0.0872596
0.0739575
0.0735329
0.0742165
0.0748718
0.0754127
0.0760867
0.0769185
0.0775575
0.0779602
0.0782749
0.0783698
0.0785117
0.0785557
0.0787274
0.0787558
0.0789358
0.0789241
0.0791153
0.0791682
0.0793755
0.0793972
0.0796075
0.0796274
0.0799049
0.0798651
0.0801793
0.0804282
0.0809256
0.0813364
0.0817864
0.0821992
0.0835008
0.0856598
0.0869057
0.0907171
0.0980651
0.0986461
0.0908336
0.0915248
0.0943737
0.0952702
0.0950632
0.09377
0.0931164
0.0928024
0.092725
0.0929784
0.0933116
0.0938325
0.0943426
0.0948624
0.0953096
0.0957824
0.0962796
0.09677
0.0972347
0.0976539
0.0980345
0.0983809
0.0986925
0.0989666
0.0992043
0.0994049
0.099574
0.0997114
0.0998245
0.0999128
0.0999759
0.100019
0.100043
0.10005
0.10005
0.100042
0.100024
0.0999972
0.0999634
0.0999329
0.0999053
0.0998725
0.0998369
0.0997961
0.099755
0.0997166
0.0996845
0.0996571
0.0996318
0.0996043
0.0995785
0.0995534
0.0995331
0.0995236
0.099524
0.0995355
0.0995554
0.0995757
0.0996021
0.0996421
0.099697
0.0997514
0.0998019
0.0998495
0.0998947
0.0999323
0.0999599
0.0999759
0.0999848
0.0999821
0.0999515
0.0998758
0.0998686
0.0998778
0.099879
0.099849
0.0998129
0.0998718
0.0999237
0.0998408
0.0996971
0.0996313
0.0995397
0.099438
0.099322
0.099188
0.0990316
0.0988501
0.0986415
0.0983998
0.0981218
0.0978021
0.0974374
0.0970154
0.0965173
0.0959436
0.0953004
0.094598
0.0938526
0.0930667
0.0922579
0.091478
0.0907867
0.0902678
0.0900185
0.090142
0.0907272
0.0918188
0.0933773
0.0952511
0.0971643
0.09877
0.099724
0.0997876
0.0988785
0.0971039
0.0947657
0.0921719
0.0896963
0.0874699
0.0850019
0.0831073
0.0819412
0.0811945
0.0807811
0.0805072
0.0803641
0.0802761
0.0802064
0.0801933
0.0801512
0.0801364
0.0805877
0.0802715
0.0802771
0.0802885
0.0802879
0.0803043
0.0803326
0.0804055
0.0805184
0.080775
0.0810728
0.0817961
0.0826122
0.084562
0.0869708
0.0909691
0.0939054
0.099892
0.0992854
0.100674
0.100946
0.0996727
0.0958897
0.0756731
0.0739859
0.0743872
0.0749941
0.075517
0.0759813
0.0768759
0.0776276
0.0781202
0.0785269
0.0786656
0.0788424
0.0788817
0.0790794
0.0790965
0.0793056
0.079274
0.0794751
0.0795068
0.0797436
0.0797324
0.0799695
0.0799268
0.0802385
0.0801147
0.080372
0.0805051
0.0809536
0.0812408
0.0815808
0.0815993
0.08229
0.0840712
0.0844712
0.087701
0.0958944
0.100059
0.0928903
0.0904258
0.093627
0.0953549
0.0956327
0.0946402
0.0944512
0.0944463
0.0945301
0.0949836
0.0955011
0.0961658
0.0967144
0.0972929
0.0977414
0.0981704
0.0985687
0.0989169
0.0992016
0.0994314
0.0996191
0.099768
0.0998826
0.0999672
0.100029
0.100072
0.100102
0.100119
0.100131
0.100135
0.100129
0.100119
0.100103
0.100086
0.100076
0.100069
0.100055
0.100039
0.10002
0.10001
0.100007
0.0999975
0.0999865
0.0999696
0.0999527
0.099939
0.0999312
0.099929
0.0999276
0.0999237
0.0999202
0.0999152
0.0999134
0.099919
0.0999302
0.0999493
0.0999708
0.0999875
0.100001
0.100023
0.100054
0.100086
0.100108
0.100126
0.10014
0.100147
0.100142
0.100123
0.100094
0.100051
0.0999822
0.0998755
0.0997084
0.0996071
0.0995271
0.0993972
0.0992144
0.0992528
0.0992953
0.0991765
0.0988677
0.0987328
0.0985557
0.0983785
0.0981991
0.0979932
0.0977712
0.0975278
0.0972616
0.0969682
0.0966454
0.0962908
0.0959028
0.0954715
0.0949819
0.094441
0.0938595
0.0932516
0.092634
0.0920118
0.0914028
0.0908483
0.0903935
0.0900972
0.0900245
0.090243
0.0908135
0.0917725
0.0931081
0.0947361
0.0964791
0.0980919
0.099297
0.0998607
0.0996239
0.0985521
0.0967732
0.0944871
0.0920284
0.0896476
0.087524
0.0850642
0.0832598
0.0820166
0.0813028
0.0808494
0.0806111
0.0804567
0.0803513
0.0803249
0.0802546
0.0802398
0.0810031
0.0808887
0.0809367
0.0809282
0.0809228
0.0809359
0.0809583
0.0810281
0.0811279
0.0813838
0.0816399
0.0823493
0.0830274
0.0848361
0.0868107
0.0905893
0.0933293
0.0995702
0.100298
0.101147
0.101593
0.100629
0.0991416
0.0806086
0.0757803
0.0750168
0.0754012
0.0759278
0.0759265
0.0767632
0.0775969
0.0781819
0.0786959
0.0789007
0.0791326
0.079175
0.0794088
0.0794183
0.0796667
0.0796219
0.0798412
0.0798491
0.0801311
0.0800851
0.0803728
0.0802589
0.0806296
0.080427
0.0806529
0.080649
0.0810771
0.081241
0.0815661
0.0812807
0.0814361
0.0827912
0.0825236
0.0837296
0.0931405
0.100186
0.0955864
0.0901826
0.0920256
0.0942019
0.0950831
0.0947159
0.0952258
0.0957867
0.0961991
0.0968517
0.0974639
0.0980637
0.0984719
0.098898
0.0992256
0.099484
0.0996838
0.0998287
0.0999253
0.100001
0.100065
0.100111
0.100144
0.100168
0.100188
0.100205
0.100223
0.100239
0.100257
0.100272
0.100277
0.100282
0.10028
0.100275
0.100278
0.100284
0.10028
0.100268
0.100247
0.100237
0.100232
0.10022
0.100204
0.100181
0.100155
0.100132
0.100114
0.100102
0.100091
0.100077
0.100061
0.10004
0.100017
0.0999964
0.0999794
0.0999684
0.0999596
0.0999415
0.0999151
0.099893
0.0998843
0.099877
0.0998601
0.0998409
0.0998175
0.0997884
0.0997464
0.0996892
0.0996198
0.0995426
0.0994286
0.0992192
0.0988904
0.0986975
0.0985492
0.0983365
0.0980451
0.0981065
0.0981494
0.0980081
0.0975682
0.0973973
0.0971687
0.0969628
0.0967517
0.0965165
0.0962719
0.0960115
0.0957338
0.0954365
0.0951177
0.0947776
0.0944151
0.094023
0.0935899
0.093126
0.0926432
0.0921565
0.0916805
0.0912211
0.0907942
0.0904303
0.0901635
0.0900344
0.0900873
0.0903685
0.0909213
0.0917755
0.0929325
0.094347
0.0959065
0.0974422
0.0987434
0.0996122
0.0998777
0.0994409
0.0983071
0.0965579
0.0944172
0.0920987
0.0899505
0.0879043
0.085774
0.0839224
0.0826919
0.0818898
0.0814631
0.0811731
0.0810123
0.0809527
0.0808515
0.080831
0.0814721
0.0816104
0.0817103
0.0816906
0.0816858
0.0817031
0.0817249
0.081802
0.0818971
0.0821748
0.0824067
0.0831504
0.0837337
0.0855383
0.0870476
0.0904581
0.0930717
0.0991859
0.101134
0.101902
0.1023
0.101347
0.0990466
0.0900077
0.0797492
0.076462
0.0760245
0.0764455
0.0758789
0.0766311
0.0774835
0.0781038
0.0786963
0.0789775
0.0792786
0.0793305
0.0796014
0.0796036
0.0798914
0.0798387
0.0800785
0.0800531
0.0803875
0.0802974
0.0806547
0.0804539
0.0809007
0.0806158
0.0808442
0.0806641
0.0811006
0.0810947
0.0814827
0.0809473
0.0807026
0.0815797
0.0811709
0.0798868
0.0895569
0.0992772
0.0983159
0.0911359
0.0905843
0.092402
0.0936356
0.0940811
0.0951529
0.0962784
0.0970614
0.0978831
0.0984876
0.0989439
0.0992069
0.0994709
0.0997113
0.0998838
0.0999889
0.100052
0.100092
0.100139
0.100193
0.100237
0.100275
0.100307
0.100339
0.100364
0.100391
0.100412
0.100435
0.10045
0.10045
0.100445
0.100426
0.100397
0.100376
0.100357
0.100325
0.100281
0.100223
0.100178
0.10014
0.1001
0.100053
0.0999973
0.0999352
0.0998761
0.099825
0.0997834
0.0997472
0.099706
0.0996597
0.0996055
0.0995428
0.099484
0.0994291
0.0993805
0.0993397
0.0992858
0.0992236
0.0991637
0.0991286
0.0990958
0.099062
0.0990177
0.0989764
0.0989231
0.0988615
0.0987779
0.0986839
0.0985703
0.0983897
0.0980773
0.0976385
0.0973935
0.0972051
0.0969376
0.0966087
0.0967097
0.0967678
0.0965955
0.0960879
0.0959063
0.0956649
0.0954638
0.0952452
0.0950143
0.0947781
0.0945317
0.0942734
0.0940025
0.0937174
0.0934201
0.0931095
0.092781
0.0924263
0.0920563
0.0916829
0.0913198
0.0909786
0.0906654
0.090393
0.0901837
0.0900626
0.0900575
0.0902
0.0905226
0.091057
0.0918275
0.0928412
0.0940751
0.0954582
0.0968767
0.0981754
0.0991969
0.0997864
0.0998277
0.0992605
0.0980855
0.0964144
0.0943815
0.0922776
0.0902453
0.0884115
0.0865866
0.0848371
0.0835026
0.0827383
0.0821968
0.0819327
0.0817974
0.0816519
0.0816147
0.0821311
0.0823173
0.0824555
0.0824421
0.082441
0.0824673
0.0824903
0.08258
0.082672
0.0829797
0.0831909
0.0839824
0.0844628
0.0863029
0.0873154
0.0903465
0.0929024
0.098765
0.101789
0.102977
0.103298
0.102185
0.0990666
0.09585
0.0873069
0.0797018
0.0771897
0.0770101
0.0758548
0.076408
0.07723
0.0778842
0.0785695
0.0789278
0.0792893
0.079348
0.0796373
0.0796244
0.079935
0.0798793
0.0801352
0.080063
0.0804458
0.0802978
0.080738
0.0804328
0.0809675
0.0805868
0.0808692
0.080463
0.0809535
0.0807007
0.081238
0.0804686
0.0800391
0.0802531
0.0803487
0.0766986
0.0842328
0.0973513
0.100428
0.0930484
0.0901037
0.090826
0.0920154
0.0931403
0.0944354
0.0959256
0.0970381
0.0980335
0.0986671
0.0990556
0.0992655
0.0994782
0.0997114
0.0999028
0.100012
0.100065
0.100105
0.100152
0.100215
0.100265
0.100304
0.100331
0.100352
0.100362
0.100371
0.10037
0.100372
0.100363
0.100334
0.100294
0.100239
0.100168
0.100102
0.100041
0.0999688
0.0998753
0.0997743
0.0996762
0.0996034
0.0995271
0.099443
0.0993488
0.099244
0.0991421
0.0990546
0.0989832
0.0989207
0.0988513
0.0987755
0.0986889
0.0985915
0.0985009
0.0984166
0.0983434
0.0982821
0.0982056
0.0981194
0.0980403
0.0979957
0.0979561
0.0979226
0.0978708
0.0978278
0.0977695
0.0976998
0.0976002
0.0974849
0.0973379
0.0971002
0.0967036
0.096208
0.0959442
0.0957404
0.0954422
0.0951384
0.0952738
0.0953568
0.0951394
0.094627
0.0944498
0.0942285
0.0940424
0.0938389
0.0936323
0.0934231
0.0932088
0.0929871
0.0927591
0.0925229
0.0922819
0.0920346
0.0917788
0.0915087
0.091235
0.090968
0.0907194
0.0904981
0.0903099
0.0901649
0.0900783
0.0900685
0.0901555
0.0903618
0.0907108
0.0912265
0.0919281
0.0928249
0.0939062
0.0951279
0.0964146
0.0976542
0.0987264
0.0995013
0.0998681
0.099739
0.0990696
0.097889
0.0962609
0.0943856
0.0923848
0.0905335
0.0888109
0.0873666
0.0856203
0.0844324
0.0834924
0.0830328
0.082741
0.0825251
0.0824497
0.0829193
0.0829573
0.0831036
0.0831112
0.0831158
0.0831544
0.0831783
0.0832832
0.0833702
0.0837049
0.0838943
0.0847188
0.0850699
0.0869292
0.0874311
0.0901298
0.0926929
0.0982821
0.102199
0.104369
0.10475
0.10344
0.0993215
0.0971958
0.0932436
0.0866538
0.0795463
0.0777635
0.0761678
0.0762554
0.0768709
0.077485
0.0782213
0.0786679
0.0791081
0.0792053
0.079525
0.0795227
0.0798427
0.0797851
0.0800335
0.0798963
0.0802987
0.0800779
0.0806005
0.0801762
0.0808008
0.0803005
0.0807023
0.0800163
0.0806293
0.0800301
0.0808207
0.0797654
0.0794939
0.0787461
0.0799711
0.0742673
0.0787464
0.0939613
0.101408
0.0956191
0.0906875
0.0900559
0.0908548
0.0922705
0.0934588
0.0950359
0.0964045
0.0975746
0.098298
0.0986824
0.0988894
0.0991177
0.0993799
0.0996137
0.0997735
0.0997987
0.0998457
0.099871
0.0999364
0.0999825
0.100012
0.100022
0.100019
0.100009
0.0999901
0.0999697
0.099942
0.0999099
0.099851
0.0997747
0.0996822
0.0995693
0.0994598
0.0993622
0.0992533
0.0991148
0.0989747
0.0988268
0.0987251
0.0986159
0.0984995
0.0983692
0.0982277
0.0980921
0.0979758
0.0978807
0.0977964
0.0977034
0.0976041
0.0974915
0.0973689
0.097257
0.0971544
0.0970691
0.0969981
0.0969113
0.0968141
0.0967314
0.0966909
0.0966601
0.0966328
0.0965889
0.0965538
0.0965012
0.0964316
0.0963246
0.0961953
0.0960211
0.0957375
0.0952845
0.0947766
0.0945165
0.0943158
0.0940103
0.0937669
0.093923
0.094029
0.0937696
0.093299
0.093135
0.0929548
0.0927871
0.0926142
0.0924425
0.0922706
0.0920977
0.0919212
0.0917435
0.0915624
0.091382
0.0912007
0.091018
0.0908305
0.0906474
0.0904777
0.0903304
0.090212
0.0901282
0.0900856
0.0900951
0.0901699
0.0903247
0.0905758
0.0909404
0.0914365
0.0920791
0.0928779
0.0938291
0.0949057
0.096059
0.0972096
0.0982678
0.0991299
0.0997002
0.0998848
0.0996191
0.0988798
0.0976757
0.0961323
0.0943182
0.0924805
0.0906771
0.0891728
0.0877474
0.0864421
0.0851051
0.0843397
0.0837581
0.0834293
0.0832761
0.0834622
0.0835092
0.0836321
0.0836654
0.0836766
0.08373
0.083753
0.0838733
0.0839521
0.0843005
0.0844679
0.0852868
0.0854813
0.087291
0.0874062
0.0897512
0.0923804
0.0977057
0.102269
0.106036
0.106768
0.105345
0.100306
0.0974006
0.0954147
0.0932176
0.0839673
0.079298
0.0775092
0.0766258
0.0766319
0.0770298
0.077693
0.0781978
0.0786931
0.0788533
0.0791922
0.079229
0.0795452
0.0795198
0.079763
0.0795902
0.080004
0.0797094
0.0802773
0.079728
0.0804154
0.0797696
0.080349
0.0793397
0.0801536
0.0791047
0.0802619
0.0787913
0.0791062
0.0770941
0.0799116
0.072666
0.0741118
0.0888797
0.100984
0.0984686
0.0921264
0.0901532
0.0903779
0.091686
0.0925062
0.0939272
0.0954643
0.0967509
0.0975718
0.0979554
0.0981675
0.0984221
0.0987285
0.0990017
0.099199
0.0991856
0.0992353
0.0992352
0.0993048
0.0993485
0.0993718
0.0993709
0.0993528
0.0993311
0.0992932
0.0992648
0.0992168