/*--------------------------------*- C++ -*----------------------------------*\
| =========                 |                                                 |
| \\      /  F ield         | OpenFOAM: The Open Source CFD Toolbox           |
|  \\    /   O peration     | Version:  2212                                  |
|   \\  /    A nd           | Website:  www.openfoam.com                      |
|    \\/     M anipulation  |                                                 |
\*---------------------------------------------------------------------------*/
FoamFile
{
    version     2.0;
    format      ascii;
    arch        "LSB;label=32;scalar=64";
    class       volScalarField;
    location    "5000";
    object      dwall;
}
// * * * * * * * * * * * * * * * * * * * * * * * * * * * * * * * * * * * * * //

dimensions      [0 1 0 0 0 0 0];

internalField   nonuniform List<scalar> 
10368
(
6.75187e-06
6.75187e-06
6.75186e-06
6.75186e-06
6.75186e-06
6.75186e-06
6.75186e-06
6.75186e-06
6.75186e-06
6.75186e-06
6.75187e-06
6.75187e-06
6.75187e-06
6.75188e-06
6.75189e-06
6.75168e-06
6.74118e-06
6.71067e-06
7.08156e-06
7.15015e-06
6.96122e-06
6.74923e-06
6.61962e-06
6.56685e-06
6.50296e-06
6.42429e-06
6.34883e-06
6.27477e-06
6.2038e-06
6.13898e-06
6.08175e-06
6.03109e-06
5.98573e-06
5.94377e-06
5.90455e-06
5.86808e-06
5.83439e-06
5.80279e-06
5.77261e-06
5.7445e-06
5.71811e-06
5.69534e-06
5.67462e-06
5.65632e-06
5.64048e-06
5.62612e-06
5.61502e-06
5.604e-06
5.59563e-06
5.59067e-06
5.58843e-06
5.58886e-06
5.5899e-06
5.59169e-06
5.59849e-06
5.61098e-06
5.61481e-06
5.60258e-06
5.5701e-06
5.50704e-06
5.39894e-06
5.26281e-06
5.15778e-06
5.08057e-06
5.0272e-06
4.99899e-06
4.99704e-06
5.01447e-06
5.04132e-06
5.08977e-06
5.15384e-06
5.20774e-06
5.25088e-06
5.29933e-06
5.35874e-06
5.42943e-06
5.50535e-06
5.57727e-06
5.64581e-06
5.71142e-06
5.78061e-06
5.85059e-06
5.92064e-06
5.98909e-06
6.05552e-06
6.11973e-06
6.18078e-06
6.23942e-06
6.29408e-06
6.34629e-06
6.39387e-06
6.43735e-06
6.47658e-06
6.51143e-06
6.54237e-06
6.57028e-06
6.59499e-06
6.61664e-06
6.63549e-06
6.65186e-06
6.66628e-06
6.67883e-06
6.6897e-06
6.69917e-06
6.70756e-06
6.71512e-06
6.72199e-06
6.72822e-06
6.73372e-06
6.73869e-06
6.74318e-06
6.74736e-06
6.75145e-06
6.75535e-06
6.75898e-06
6.76216e-06
6.76443e-06
6.76592e-06
6.76679e-06
6.76719e-06
6.76605e-06
6.76295e-06
6.75738e-06
6.74999e-06
6.7397e-06
6.72722e-06
6.7118e-06
6.69518e-06
6.67715e-06
6.65915e-06
6.64207e-06
6.63097e-06
6.62892e-06
6.63073e-06
6.63112e-06
6.6326e-06
6.6392e-06
6.64344e-06
6.6273e-06
6.61014e-06
6.61014e-06
6.61014e-06
6.61014e-06
6.61014e-06
6.61014e-06
6.61014e-06
6.61013e-06
6.61013e-06
6.61013e-06
6.61013e-06
6.61012e-06
6.61012e-06
6.61132e-06
6.62145e-06
6.64613e-06
6.68062e-06
6.71613e-06
6.74198e-06
6.75147e-06
6.75189e-06
6.75188e-06
6.75188e-06
6.75188e-06
6.75188e-06
6.75188e-06
6.75187e-06
6.75187e-06
6.75187e-06
6.75187e-06
6.75187e-06
6.75187e-06
6.75187e-06
6.75187e-06
6.75186e-06
6.75186e-06
6.75186e-06
6.75186e-06
6.75186e-06
6.75186e-06
6.75186e-06
6.75186e-06
6.75186e-06
6.75186e-06
6.75186e-06
6.75186e-06
6.75186e-06
6.75186e-06
6.75186e-06
6.75187e-06
6.75187e-06
6.75187e-06
6.75187e-06
2.04517e-05
2.04676e-05
2.05456e-05
2.07304e-05
2.10323e-05
2.14257e-05
2.18632e-05
2.22927e-05
2.26712e-05
2.29701e-05
2.31756e-05
2.32861e-05
2.33084e-05
2.32546e-05
2.31389e-05
2.30088e-05
2.41663e-05
2.47786e-05
2.62807e-05
2.63719e-05
2.5339e-05
2.46116e-05
2.4171e-05
2.35228e-05
2.28622e-05
2.23128e-05
2.17649e-05
2.12185e-05
2.0734e-05
2.02901e-05
1.98467e-05
1.95471e-05
1.92868e-05
1.90507e-05
1.88355e-05
1.86393e-05
1.84623e-05
1.83411e-05
1.82132e-05
1.8072e-05
1.79422e-05
1.78283e-05
1.77251e-05
1.76328e-05
1.75505e-05
1.74754e-05
1.74116e-05
1.73514e-05
1.73005e-05
1.72603e-05
1.72288e-05
1.72063e-05
1.71888e-05
1.71771e-05
1.71794e-05
1.71965e-05
1.72044e-05
1.7193e-05
1.71878e-05
1.72067e-05
1.71914e-05
1.71721e-05
1.7192e-05
1.72323e-05
1.72814e-05
1.73366e-05
1.74008e-05
1.74796e-05
1.75666e-05
1.76672e-05
1.77757e-05
1.78776e-05
1.79716e-05
1.80681e-05
1.81697e-05
1.82772e-05
1.83852e-05
1.84894e-05
1.85899e-05
1.8687e-05
1.87843e-05
1.88784e-05
1.89724e-05
1.90659e-05
1.91568e-05
1.92449e-05
1.93296e-05
1.94117e-05
1.94902e-05
1.9566e-05
1.96382e-05
1.97068e-05
1.97722e-05
1.98339e-05
1.98926e-05
1.99487e-05
2.00023e-05
2.00533e-05
2.01019e-05
2.01482e-05
2.01929e-05
2.02359e-05
2.02774e-05
2.03175e-05
2.03564e-05
2.03942e-05
2.04312e-05
2.04676e-05
2.05034e-05
2.05388e-05
2.05738e-05
2.06085e-05
2.0643e-05
2.06775e-05
2.07119e-05
2.07465e-05
2.0781e-05
2.08157e-05
2.08505e-05
2.08853e-05
2.09202e-05
2.09551e-05
2.09898e-05
2.10242e-05
2.10581e-05
2.10917e-05
2.11246e-05
2.11573e-05
2.11898e-05
2.12225e-05
2.12558e-05
2.12914e-05
2.13307e-05
2.13727e-05
2.14164e-05
2.14625e-05
2.15124e-05
2.15643e-05
2.16129e-05
2.1663e-05
2.17205e-05
2.17808e-05
2.18437e-05
2.1909e-05
2.19765e-05
2.2046e-05
2.21174e-05
2.21904e-05
2.22648e-05
2.23403e-05
2.24166e-05
2.24933e-05
2.26247e-05
2.31012e-05
2.36494e-05
2.40643e-05
2.41887e-05
2.38695e-05
2.33837e-05
2.34163e-05
2.34728e-05
2.35237e-05
2.35681e-05
2.3605e-05
2.36333e-05
2.3652e-05
2.36598e-05
2.36555e-05
2.3638e-05
2.3606e-05
2.35581e-05
2.34934e-05
2.34107e-05
2.33091e-05
2.31879e-05
2.30468e-05
2.28858e-05
2.27055e-05
2.25073e-05
2.22933e-05
2.20666e-05
2.18316e-05
2.15937e-05
2.13599e-05
2.11379e-05
2.09367e-05
2.07647e-05
2.0629e-05
2.0534e-05
2.04789e-05
2.04559e-05
2.04512e-05
3.47432e-05
3.47701e-05
3.49028e-05
3.52165e-05
3.57294e-05
3.63979e-05
3.7141e-05
3.78707e-05
3.85137e-05
3.90214e-05
3.93705e-05
3.95581e-05
3.95961e-05
3.95047e-05
3.93082e-05
3.90638e-05
4.00088e-05
4.0328e-05
4.10273e-05
3.99154e-05
3.78594e-05
3.64059e-05
3.5722e-05
3.54472e-05
3.51003e-05
3.46484e-05
3.42095e-05
3.37798e-05
3.3363e-05
3.29555e-05
3.25408e-05
3.22325e-05
3.19539e-05
3.16972e-05
3.14593e-05
3.12398e-05
3.10373e-05
3.08841e-05
3.07248e-05
3.05532e-05
3.03926e-05
3.0248e-05
3.01138e-05
2.99907e-05
2.98786e-05
2.97749e-05
2.96833e-05
2.9597e-05
2.95223e-05
2.94609e-05
2.94118e-05
2.93748e-05
2.93467e-05
2.93293e-05
2.93314e-05
2.93547e-05
2.93744e-05
2.93813e-05
2.94061e-05
2.9466e-05
2.94907e-05
2.95159e-05
2.95827e-05
2.96731e-05
2.97733e-05
2.98802e-05
2.9997e-05
3.01312e-05
3.02718e-05
3.04266e-05
3.05912e-05
3.07469e-05
3.0895e-05
3.10458e-05
3.12021e-05
3.13627e-05
3.15239e-05
3.16804e-05
3.18316e-05
3.19793e-05
3.21265e-05
3.22696e-05
3.24115e-05
3.25531e-05
3.26906e-05
3.28237e-05
3.29526e-05
3.30775e-05
3.31973e-05
3.33134e-05
3.34242e-05
3.35303e-05
3.36316e-05
3.37284e-05
3.38208e-05
3.39095e-05
3.39945e-05
3.4076e-05
3.41542e-05
3.42292e-05
3.43018e-05
3.4372e-05
3.444e-05
3.4506e-05
3.45702e-05
3.46329e-05
3.46945e-05
3.47551e-05
3.4815e-05
3.48741e-05
3.49328e-05
3.4991e-05
3.5049e-05
3.5107e-05
3.5165e-05
3.52231e-05
3.52815e-05
3.53399e-05
3.53987e-05
3.54577e-05
3.55169e-05
3.55762e-05
3.56354e-05
3.56946e-05
3.57533e-05
3.58117e-05
3.58697e-05
3.59275e-05
3.59853e-05
3.60437e-05
3.61031e-05
3.61655e-05
3.62325e-05
3.63035e-05
3.63777e-05
3.64557e-05
3.65393e-05
3.66266e-05
3.67122e-05
3.68008e-05
3.68986e-05
3.7001e-05
3.71078e-05
3.72187e-05
3.73334e-05
3.74515e-05
3.75728e-05
3.76969e-05
3.78233e-05
3.79515e-05
3.80811e-05
3.82114e-05
3.83986e-05
3.89414e-05
3.95724e-05
4.00872e-05
4.0325e-05
4.01169e-05
3.97032e-05
3.97793e-05
3.98753e-05
3.99618e-05
4.00372e-05
4.00999e-05
4.01481e-05
4.01798e-05
4.0193e-05
4.01858e-05
4.0156e-05
4.01016e-05
4.00203e-05
3.99103e-05
3.97698e-05
3.95972e-05
3.93914e-05
3.91516e-05
3.88782e-05
3.8572e-05
3.82352e-05
3.78717e-05
3.74866e-05
3.70873e-05
3.66832e-05
3.62859e-05
3.59089e-05
3.55671e-05
3.52748e-05
3.50443e-05
3.4883e-05
3.47894e-05
3.47504e-05
3.47424e-05
5.00401e-05
5.00789e-05
5.02699e-05
5.07218e-05
5.14605e-05
5.24233e-05
5.34936e-05
5.45446e-05
5.54707e-05
5.62019e-05
5.67047e-05
5.6975e-05
5.70297e-05
5.68981e-05
5.6615e-05
5.62482e-05
5.70001e-05
5.70558e-05
5.72129e-05
5.53362e-05
5.26163e-05
5.06462e-05
4.96802e-05
4.94452e-05
4.91257e-05
4.86102e-05
4.81251e-05
4.76653e-05
4.72055e-05
4.67502e-05
4.62946e-05
4.59334e-05
4.56042e-05
4.53006e-05
4.50186e-05
4.47577e-05
4.45165e-05
4.43234e-05
4.41252e-05
4.39169e-05
4.37208e-05
4.35415e-05
4.3374e-05
4.32187e-05
4.30753e-05
4.29412e-05
4.28216e-05
4.27086e-05
4.26096e-05
4.25269e-05
4.24593e-05
4.24077e-05
4.23694e-05
4.23463e-05
4.23489e-05
4.23793e-05
4.24126e-05
4.24411e-05
4.24988e-05
4.25995e-05
4.26669e-05
4.27376e-05
4.28557e-05
4.29975e-05
4.31522e-05
4.33149e-05
4.34886e-05
4.36793e-05
4.38786e-05
4.40927e-05
4.43143e-05
4.45291e-05
4.47349e-05
4.49432e-05
4.51569e-05
4.53747e-05
4.55925e-05
4.58039e-05
4.60101e-05
4.62112e-05
4.64113e-05
4.66062e-05
4.68004e-05
4.69924e-05
4.71791e-05
4.7361e-05
4.75366e-05
4.77069e-05
4.78711e-05
4.80296e-05
4.81819e-05
4.83279e-05
4.84677e-05
4.86016e-05
4.87299e-05
4.88535e-05
4.89722e-05
4.90862e-05
4.91959e-05
4.93015e-05
4.94039e-05
4.95031e-05
4.95995e-05
4.96931e-05
4.97844e-05
4.98738e-05
4.99616e-05
5.00482e-05
5.01337e-05
5.02184e-05
5.03023e-05
5.03857e-05
5.04688e-05
5.05518e-05
5.06351e-05
5.07185e-05
5.08022e-05
5.08862e-05
5.09706e-05
5.10554e-05
5.11406e-05
5.12261e-05
5.13117e-05
5.13971e-05
5.14824e-05
5.15675e-05
5.16522e-05
5.17369e-05
5.18218e-05
5.19076e-05
5.1995e-05
5.2086e-05
5.21827e-05
5.22848e-05
5.23915e-05
5.25038e-05
5.26233e-05
5.27486e-05
5.28738e-05
5.30036e-05
5.31445e-05
5.3292e-05
5.34458e-05
5.36055e-05
5.37707e-05
5.39409e-05
5.41156e-05
5.42942e-05
5.44763e-05
5.4661e-05
5.48476e-05
5.50353e-05
5.52823e-05
5.58994e-05
5.66273e-05
5.7256e-05
5.76136e-05
5.75134e-05
5.71709e-05
5.72936e-05
5.74318e-05
5.75564e-05
5.7665e-05
5.77553e-05
5.78246e-05
5.78703e-05
5.78894e-05
5.7879e-05
5.78361e-05
5.77577e-05
5.76407e-05
5.74823e-05
5.72799e-05
5.70313e-05
5.67348e-05
5.63895e-05
5.59956e-05
5.55546e-05
5.50697e-05
5.4546e-05
5.39914e-05
5.34162e-05
5.28342e-05
5.2262e-05
5.17191e-05
5.12267e-05
5.08057e-05
5.04738e-05
5.02415e-05
5.01066e-05
5.00504e-05
5.00389e-05
6.67851e-05
6.68368e-05
6.70918e-05
6.7695e-05
6.86809e-05
6.99658e-05
7.13943e-05
7.27969e-05
7.40329e-05
7.50089e-05
7.56799e-05
7.60406e-05
7.61137e-05
7.5938e-05
7.55602e-05
7.50595e-05
7.5613e-05
7.54001e-05
7.50963e-05
7.26097e-05
6.93449e-05
6.69211e-05
6.56383e-05
6.52847e-05
6.48598e-05
6.42022e-05
6.35971e-05
6.30394e-05
6.24855e-05
6.19437e-05
6.14131e-05
6.09786e-05
6.05818e-05
6.02162e-05
5.98789e-05
5.95669e-05
5.9279e-05
5.90399e-05
5.87977e-05
5.85472e-05
5.83111e-05
5.80938e-05
5.78896e-05
5.76988e-05
5.75215e-05
5.73552e-05
5.72047e-05
5.7063e-05
5.69381e-05
5.68322e-05
5.6745e-05
5.66777e-05
5.66279e-05
5.65993e-05
5.66027e-05
5.66406e-05
5.66892e-05
5.67427e-05
5.68365e-05
5.69803e-05
5.70936e-05
5.72156e-05
5.73874e-05
5.75874e-05
5.78013e-05
5.80236e-05
5.82598e-05
5.85143e-05
5.87762e-05
5.90542e-05
5.93408e-05
5.96171e-05
5.98869e-05
6.01589e-05
6.04352e-05
6.07154e-05
6.09946e-05
6.12662e-05
6.15321e-05
6.17923e-05
6.20498e-05
6.23019e-05
6.25521e-05
6.27998e-05
6.30409e-05
6.32751e-05
6.35023e-05
6.37223e-05
6.39345e-05
6.41402e-05
6.43372e-05
6.45268e-05
6.47089e-05
6.48834e-05
6.5051e-05
6.52126e-05
6.5368e-05
6.55177e-05
6.56618e-05
6.58009e-05
6.5936e-05
6.60669e-05
6.61942e-05
6.63181e-05
6.64391e-05
6.65576e-05
6.66741e-05
6.67891e-05
6.69027e-05
6.70153e-05
6.71268e-05
6.72378e-05
6.73484e-05
6.7459e-05
6.75697e-05
6.76808e-05
6.77923e-05
6.79043e-05
6.80167e-05
6.81298e-05
6.82435e-05
6.83576e-05
6.84719e-05
6.85863e-05
6.87006e-05
6.88148e-05
6.89287e-05
6.90428e-05
6.91575e-05
6.92733e-05
6.93912e-05
6.95136e-05
6.96428e-05
6.9779e-05
6.99214e-05
7.00711e-05
7.023e-05
7.03967e-05
7.05654e-05
7.07403e-05
7.09284e-05
7.11252e-05
7.13305e-05
7.15436e-05
7.1764e-05
7.19912e-05
7.22243e-05
7.24628e-05
7.27058e-05
7.29523e-05
7.32013e-05
7.34518e-05
7.37643e-05
7.44639e-05
7.5301e-05
7.60569e-05
7.65454e-05
7.65591e-05
7.62921e-05
7.64659e-05
7.66503e-05
7.68166e-05
7.69616e-05
7.70821e-05
7.71746e-05
7.72355e-05
7.72611e-05
7.72472e-05
7.71899e-05
7.70852e-05
7.69291e-05
7.67177e-05
7.64476e-05
7.61158e-05
7.572e-05
7.52592e-05
7.47336e-05
7.4145e-05
7.34978e-05
7.27989e-05
7.20586e-05
7.1291e-05
7.05142e-05
6.97506e-05
6.9026e-05
6.83688e-05
6.78069e-05
6.73639e-05
6.70539e-05
6.68738e-05
6.67989e-05
6.67835e-05
8.54629e-05
8.5529e-05
8.58553e-05
8.66272e-05
8.78888e-05
8.95331e-05
9.1361e-05
9.3156e-05
9.47376e-05
9.59865e-05
9.68452e-05
9.73068e-05
9.74003e-05
9.71755e-05
9.6692e-05
9.60419e-05
9.63807e-05
9.58787e-05
9.51318e-05
9.20861e-05
8.83067e-05
8.54327e-05
8.37924e-05
8.32222e-05
8.26089e-05
8.17542e-05
8.09791e-05
8.02781e-05
7.95949e-05
7.8938e-05
7.83092e-05
7.77841e-05
7.73055e-05
7.68665e-05
7.6463e-05
7.60913e-05
7.57489e-05
7.54578e-05
7.51653e-05
7.48669e-05
7.45859e-05
7.43257e-05
7.40805e-05
7.38504e-05
7.36353e-05
7.3433e-05
7.32485e-05
7.30752e-05
7.29212e-05
7.27899e-05
7.26808e-05
7.2596e-05
7.25341e-05
7.24993e-05
7.25034e-05
7.255e-05
7.26161e-05
7.26973e-05
7.28314e-05
7.30231e-05
7.31877e-05
7.3366e-05
7.35989e-05
7.38622e-05
7.41417e-05
7.44328e-05
7.47373e-05
7.50618e-05
7.53958e-05
7.57442e-05
7.61011e-05
7.64496e-05
7.67895e-05
7.71309e-05
7.74784e-05
7.78276e-05
7.81748e-05
7.85147e-05
7.88466e-05
7.91722e-05
7.94943e-05
7.98095e-05
8.0123e-05
8.04324e-05
8.07338e-05
8.10269e-05
8.1311e-05
8.15866e-05
8.18527e-05
8.211e-05
8.23577e-05
8.25958e-05
8.28247e-05
8.30446e-05
8.3256e-05
8.346e-05
8.36565e-05
8.38458e-05
8.40284e-05
8.42049e-05
8.43763e-05
8.45426e-05
8.47044e-05
8.48621e-05
8.50161e-05
8.51671e-05
8.53157e-05
8.54623e-05
8.56073e-05
8.57509e-05
8.58934e-05
8.6035e-05
8.61763e-05
8.63175e-05
8.6459e-05
8.6601e-05
8.67435e-05
8.68866e-05
8.70303e-05
8.71749e-05
8.73203e-05
8.74664e-05
8.76128e-05
8.77595e-05
8.79061e-05
8.80528e-05
8.81994e-05
8.83463e-05
8.8494e-05
8.86433e-05
8.87954e-05
8.89527e-05
8.91182e-05
8.92923e-05
8.94745e-05
8.96659e-05
8.98688e-05
9.00818e-05
9.02989e-05
9.05242e-05
9.07648e-05
9.10167e-05
9.12794e-05
9.15521e-05
9.18342e-05
9.21249e-05
9.24232e-05
9.27284e-05
9.30393e-05
9.33547e-05
9.36735e-05
9.3994e-05
9.43795e-05
9.51719e-05
9.61323e-05
9.70314e-05
9.76656e-05
9.7804e-05
9.76203e-05
9.7851e-05
9.8087e-05
9.82998e-05
9.84853e-05
9.86395e-05
9.87579e-05
9.88359e-05
9.88686e-05
9.88508e-05
9.87776e-05
9.86436e-05
9.84438e-05
9.81732e-05
9.78276e-05
9.74029e-05
9.68965e-05
9.63069e-05
9.56342e-05
9.4881e-05
9.40528e-05
9.31584e-05
9.22111e-05
9.12289e-05
9.02349e-05
8.92577e-05
8.83304e-05
8.74894e-05
8.67704e-05
8.62035e-05
8.58068e-05
8.55764e-05
8.54805e-05
8.54608e-05
0.000106614
0.000106696
0.000107103
0.000108066
0.00010964
0.000111691
0.000113972
0.000116211
0.000118184
0.000119742
0.000120813
0.000121389
0.000121506
0.000121225
0.000120622
0.000119803
0.000119902
0.000119079
0.000117875
0.00011427
0.000109963
0.000106612
0.000104564
0.000103698
0.000102829
0.000101728
0.000100738
9.98541e-05
9.90096e-05
9.82114e-05
9.74623e-05
9.68293e-05
9.62544e-05
9.57295e-05
9.52483e-05
9.48074e-05
9.4402e-05
9.40514e-05
9.37009e-05
9.33482e-05
9.30159e-05
9.2707e-05
9.24152e-05
9.21407e-05
9.1883e-05
9.164e-05
9.14171e-05
9.12079e-05
9.10216e-05
9.08613e-05
9.07276e-05
9.06231e-05
9.05474e-05
9.05057e-05
9.05109e-05
9.05673e-05
9.06528e-05
9.07663e-05
9.09459e-05
9.11915e-05
9.14138e-05
9.16563e-05
9.19577e-05
9.22931e-05
9.26474e-05
9.30148e-05
9.3398e-05
9.38019e-05
9.42157e-05
9.46451e-05
9.50831e-05
9.55105e-05
9.59301e-05
9.63522e-05
9.67781e-05
9.72063e-05
9.76314e-05
9.80471e-05
9.84546e-05
9.88541e-05
9.92487e-05
9.96361e-05
0.000100021
0.0001004
0.00010077
0.00010113
0.000101478
0.000101817
0.000102144
0.00010246
0.000102764
0.000103058
0.00010334
0.000103611
0.000103872
0.000104124
0.000104367
0.000104601
0.000104827
0.000105046
0.000105258
0.000105465
0.000105666
0.000105862
0.000106053
0.000106241
0.000106426
0.000106608
0.000106789
0.000106967
0.000107145
0.000107321
0.000107497
0.000107673
0.00010785
0.000108027
0.000108204
0.000108382
0.000108562
0.000108742
0.000108923
0.000109106
0.000109288
0.000109471
0.000109655
0.000109838
0.000110022
0.000110206
0.000110391
0.000110578
0.000110769
0.000110966
0.000111172
0.00011139
0.000111617
0.000111855
0.000112108
0.000112374
0.000112645
0.000112928
0.000113228
0.000113542
0.00011387
0.00011421
0.000114562
0.000114925
0.000115297
0.000115677
0.000116065
0.000116459
0.000116856
0.000117256
0.000117724
0.000118622
0.000119723
0.000120785
0.000121584
0.000121863
0.000121773
0.000122068
0.000122362
0.000122628
0.000122859
0.000123051
0.000123199
0.000123296
0.000123337
0.000123315
0.000123224
0.000123057
0.000122807
0.00012247
0.000122039
0.000121509
0.000120877
0.000120142
0.000119302
0.000118363
0.00011733
0.000116214
0.000115032
0.000113807
0.000112567
0.000111348
0.000110191
0.000109142
0.000108245
0.000107538
0.000107043
0.000106755
0.000106636
0.000106611
0.00013085
0.000130951
0.000131451
0.000132633
0.000134564
0.000137082
0.000139881
0.000142629
0.00014505
0.000146963
0.000148277
0.000148984
0.000149127
0.000148783
0.000148043
0.00014703
0.000146858
0.000145671
0.000143972
0.000139778
0.000134902
0.000131024
0.000128508
0.000127271
0.00012608
0.000124681
0.000123431
0.000122323
0.000121283
0.000120316
0.000119422
0.000118663
0.000117974
0.000117349
0.000116778
0.000116256
0.000115777
0.000115358
0.000114941
0.000114526
0.000114134
0.00011377
0.000113425
0.000113099
0.000112792
0.000112503
0.000112236
0.000111986
0.000111762
0.000111569
0.000111407
0.000111281
0.000111189
0.000111139
0.000111146
0.000111213
0.000111322
0.000111472
0.000111704
0.000112011
0.0001123
0.000112615
0.000112995
0.000113413
0.000113853
0.000114308
0.000114781
0.000115276
0.000115782
0.000116304
0.000116833
0.000117353
0.000117864
0.000118377
0.000118894
0.000119412
0.000119926
0.000120429
0.000120923
0.000121407
0.000121885
0.000122355
0.000122821
0.000123281
0.000123729
0.000124164
0.000124588
0.000124998
0.000125394
0.000125778
0.000126148
0.000126504
0.000126847
0.000127177
0.000127495
0.000127802
0.000128098
0.000128384
0.00012866
0.000128927
0.000129187
0.000129439
0.000129685
0.000129924
0.000130159
0.000130389
0.000130615
0.000130839
0.00013106
0.000131279
0.000131496
0.000131713
0.000131928
0.000132144
0.00013236
0.000132577
0.000132795
0.000133014
0.000133234
0.000133455
0.000133677
0.000133901
0.000134126
0.000134351
0.000134576
0.000134801
0.000135027
0.000135254
0.000135482
0.000135713
0.000135948
0.00013619
0.000136444
0.00013671
0.000136989
0.000137282
0.000137591
0.000137917
0.000138252
0.000138599
0.000138968
0.000139353
0.000139756
0.000140173
0.000140605
0.00014105
0.000141507
0.000141974
0.00014245
0.000142933
0.000143421
0.000143912
0.000144475
0.000145493
0.000146756
0.000148006
0.000148993
0.000149432
0.000149448
0.000149817
0.000150179
0.000150504
0.000150788
0.000151024
0.000151206
0.000151325
0.000151375
0.000151348
0.000151236
0.000151031
0.000150725
0.000150311
0.000149781
0.000149131
0.000148356
0.000147453
0.000146423
0.00014527
0.000144002
0.000142633
0.000141182
0.000139678
0.000138156
0.00013666
0.000135241
0.000133953
0.000132852
0.000131984
0.000131377
0.000131024
0.000130877
0.000130847
0.000158873
0.000158996
0.000159603
0.000161037
0.000163383
0.000166439
0.000169837
0.000173174
0.000176114
0.000178436
0.000180032
0.00018089
0.000181064
0.000180646
0.000179748
0.00017851
0.000178027
0.000176423
0.000174174
0.000169334
0.000163826
0.000159354
0.000156295
0.000154605
0.000153022
0.000151268
0.000149705
0.000148328
0.000147056
0.000145887
0.000144823
0.000143914
0.000143094
0.00014235
0.000141673
0.000141057
0.000140494
0.000139994
0.000139501
0.000139012
0.000138552
0.000138123
0.000137716
0.000137332
0.000136969
0.000136626
0.000136308
0.000136011
0.000135744
0.000135513
0.000135319
0.000135166
0.000135056
0.000134998
0.000135005
0.000135086
0.00013522
0.000135413
0.000135706
0.000136084
0.000136449
0.000136849
0.00013732
0.000137833
0.000138372
0.000138929
0.000139506
0.000140106
0.000140718
0.000141347
0.000141982
0.000142608
0.000143225
0.000143844
0.000144466
0.000145088
0.000145705
0.000146309
0.000146902
0.000147484
0.000148059
0.000148624
0.000149184
0.000149737
0.000150275
0.000150799
0.000151307
0.000151801
0.000152278
0.00015274
0.000153185
0.000153614
0.000154027
0.000154425
0.000154809
0.00015518
0.000155537
0.000155882
0.000156216
0.000156539
0.000156854
0.000157159
0.000157456
0.000157747
0.000158031
0.000158309
0.000158584
0.000158855
0.000159123
0.000159389
0.000159653
0.000159915
0.000160177
0.000160439
0.000160701
0.000160964
0.000161228
0.000161494
0.000161761
0.000162029
0.000162299
0.000162571
0.000162843
0.000163117
0.000163391
0.000163665
0.00016394
0.000164216
0.000164494
0.000164775
0.000165061
0.000165355
0.000165663
0.000165987
0.000166325
0.000166681
0.000167056
0.000167451
0.000167859
0.000168282
0.000168729
0.000169198
0.000169686
0.000170193
0.000170717
0.000171257
0.000171812
0.000172379
0.000172957
0.000173544
0.000174136
0.000174732
0.000175405
0.000176563
0.000178014
0.00017948
0.000180686
0.000181308
0.000181448
0.000181902
0.000182341
0.000182736
0.000183081
0.000183368
0.000183588
0.000183733
0.000183794
0.000183761
0.000183625
0.000183376
0.000183004
0.000182501
0.000181859
0.000181069
0.000180128
0.000179032
0.000177781
0.000176381
0.000174841
0.000173179
0.000171418
0.000169592
0.000167744
0.000165927
0.000164204
0.00016264
0.000161303
0.00016025
0.000159512
0.000159084
0.000158906
0.000158869
0.000191493
0.000191642
0.000192373
0.000194102
0.000196929
0.000200613
0.000204709
0.000208731
0.000212275
0.000215073
0.000216997
0.000218032
0.000218241
0.000217738
0.000216654
0.000215156
0.000214311
0.000212224
0.000209351
0.000203787
0.000197562
0.000192409
0.000188717
0.000186482
0.000184428
0.000182252
0.000180317
0.00017862
0.000177072
0.000175665
0.000174398
0.000173313
0.000172338
0.000171455
0.000170655
0.000169928
0.000169266
0.000168673
0.00016809
0.000167516
0.000166977
0.000166472
0.000165994
0.000165541
0.000165112
0.000164707
0.00016433
0.000163978
0.000163661
0.000163386
0.000163153
0.00016297
0.000162839
0.00016277
0.00016278
0.000162875
0.000163041
0.000163284
0.000163647
0.000164107
0.000164561
0.000165059
0.000165637
0.000166261
0.000166914
0.000167589
0.000168287
0.00016901
0.000169746
0.000170498
0.000171259
0.000172007
0.000172747
0.000173488
0.000174233
0.000174976
0.000175712
0.000176434
0.000177143
0.00017784
0.000178527
0.000179202
0.000179873
0.000180533
0.000181177
0.000181803
0.000182411
0.000183002
0.000183573
0.000184125
0.000184658
0.000185172
0.000185667
0.000186144
0.000186605
0.000187049
0.000187478
0.000187893
0.000188293
0.000188682
0.00018906
0.000189427
0.000189785
0.000190134
0.000190476
0.000190811
0.000191141
0.000191468
0.000191791
0.000192111
0.000192428
0.000192744
0.00019306
0.000193375
0.000193691
0.000194008
0.000194327
0.000194646
0.000194968
0.000195291
0.000195617
0.000195944
0.000196273
0.000196603
0.000196933
0.000197264
0.000197596
0.000197929
0.000198265
0.000198604
0.00019895
0.000199306
0.000199677
0.000200067
0.000200475
0.000200903
0.000201355
0.000201831
0.000202323
0.000202834
0.000203373
0.000203938
0.000204527
0.000205138
0.00020577
0.000206421
0.000207089
0.000207773
0.00020847
0.000209177
0.000209891
0.000210609
0.000211409
0.000212731
0.0002144
0.000216119
0.000217579
0.000218414
0.000218697
0.000219251
0.00021978
0.000220257
0.000220672
0.000221018
0.000221283
0.000221458
0.000221531
0.000221491
0.000221327
0.000221027
0.000220579
0.000219973
0.000219199
0.000218247
0.000217112
0.000215791
0.000214284
0.000212596
0.000210741
0.000208737
0.000206614
0.000204413
0.000202186
0.000199996
0.000197919
0.000196034
0.000194423
0.000193153
0.000192264
0.000191748
0.000191533
0.000191489
0.000229656
0.000229833
0.00023071
0.000232784
0.000236175
0.000240593
0.000245505
0.000250329
0.000254579
0.000257935
0.000260242
0.000261483
0.000261734
0.00026113
0.000259831
0.000258027
0.000256761
0.00025411
0.00025052
0.000244131
0.00023708
0.000231139
0.000226706
0.000223821
0.000221203
0.000218527
0.000216152
0.000214074
0.000212198
0.000210509
0.000209003
0.000207712
0.000206553
0.000205507
0.000204562
0.000203706
0.000202926
0.000202225
0.000201536
0.000200863
0.00020023
0.000199637
0.000199075
0.000198542
0.000198036
0.000197558
0.000197112
0.000196696
0.000196321
0.000195993
0.000195717
0.000195499
0.000195343
0.000195262
0.000195273
0.000195386
0.000195587
0.000195889
0.000196334
0.000196891
0.000197449
0.000198062
0.000198763
0.000199518
0.000200305
0.000201119
0.000201958
0.000202824
0.000203705
0.000204603
0.000205508
0.000206401
0.000207284
0.00020817
0.000209057
0.000209942
0.000210818
0.000211678
0.000212522
0.000213352
0.000214171
0.000214976
0.000215775
0.000216562
0.000217328
0.000218075
0.000218799
0.000219503
0.000220184
0.000220843
0.000221478
0.000222091
0.000222682
0.000223252
0.000223801
0.000224333
0.000224845
0.000225341
0.00022582
0.000226285
0.000226737
0.000227177
0.000227605
0.000228023
0.000228432
0.000228834
0.00022923
0.000229621
0.000230008
0.000230391
0.000230772
0.000231151
0.000231529
0.000231907
0.000232286
0.000232666
0.000233048
0.000233431
0.000233816
0.000234204
0.000234595
0.000234987
0.000235382
0.000235777
0.000236174
0.000236571
0.00023697
0.00023737
0.000237773
0.000238181
0.000238596
0.000239024
0.000239469
0.000239936
0.000240426
0.000240939
0.000241481
0.000242052
0.000242643
0.000243257
0.000243903
0.00024458
0.000245286
0.000246019
0.000246777
0.000247558
0.00024836
0.00024918
0.000250015
0.000250863
0.000251719
0.000252581
0.00025353
0.000255043
0.000256968
0.000258983
0.00026074
0.000261825
0.000262275
0.000262945
0.000263579
0.000264151
0.00026465
0.000265064
0.000265382
0.000265592
0.000265679
0.000265632
0.000265435
0.000265075
0.000264538
0.000263811
0.000262882
0.000261741
0.00026038
0.000258796
0.000256988
0.000254964
0.000252738
0.000250335
0.00024779
0.00024515
0.000242479
0.000239853
0.000237361
0.000235101
0.000233169
0.000231646
0.00023058
0.000229961
0.000229703
0.00022965
0.000274464
0.000274676
0.000275724
0.000278203
0.000282255
0.000287535
0.000293406
0.00029917
0.00030425
0.000308261
0.000311018
0.000312501
0.000312801
0.000312079
0.000310526
0.000308365
0.000306604
0.000303293
0.000298872
0.00029153
0.000283522
0.00027666
0.000271357
0.000267699
0.000264411
0.000261142
0.000258244
0.000255715
0.000253451
0.000251429
0.000249639
0.000248103
0.000246729
0.000245492
0.000244376
0.000243366
0.00024245
0.00024162
0.000240807
0.000240016
0.000239274
0.000238578
0.000237917
0.00023729
0.000236694
0.00023613
0.000235603
0.000235111
0.000234668
0.00023428
0.000233952
0.000233692
0.000233507
0.000233412
0.000233426
0.00023356
0.000233803
0.000234173
0.000234715
0.000235384
0.000236065
0.000236814
0.00023766
0.000238566
0.000239512
0.000240488
0.000241492
0.000242527
0.000243578
0.000244647
0.000245722
0.000246784
0.000247837
0.000248891
0.000249946
0.000250998
0.000252038
0.000253059
0.000254063
0.00025505
0.000256022
0.00025698
0.00025793
0.000258864
0.000259776
0.000260663
0.000261524
0.000262361
0.000263171
0.000263954
0.000264711
0.00026544
0.000266143
0.000266822
0.000267476
0.000268109
0.00026872
0.000269311
0.000269882
0.000270437
0.000270976
0.0002715
0.000272012
0.000272511
0.000272999
0.000273479
0.000273952
0.000274419
0.000274881
0.000275339
0.000275794
0.000276246
0.000276697
0.000277149
0.000277602
0.000278056
0.000278512
0.00027897
0.000279431
0.000279894
0.000280361
0.00028083
0.000281301
0.000281774
0.000282248
0.000282724
0.0002832
0.000283679
0.000284162
0.00028465
0.000285147
0.000285659
0.000286191
0.000286749
0.000287334
0.000287948
0.000288595
0.000289277
0.000289984
0.000290719
0.000291491
0.000292301
0.000293144
0.00029402
0.000294926
0.000295859
0.000296817
0.000297797
0.000298796
0.000299809
0.000300832
0.000301862
0.000302986
0.000304723
0.000306949
0.000309313
0.000311418
0.000312796
0.000313442
0.000314248
0.000315006
0.00031569
0.000316285
0.000316781
0.000317161
0.000317411
0.000317516
0.000317459
0.000317224
0.000316794
0.000316152
0.000315283
0.000314173
0.000312809
0.000311183
0.000309289
0.000307129
0.00030471
0.00030205
0.000299178
0.000296136
0.000292981
0.000289789
0.000286651
0.000283673
0.000280972
0.000278663
0.000276843
0.000275568
0.000274828
0.00027452
0.000274457
0.000327215
0.000327468
0.000328717
0.000331672
0.000336503
0.000342798
0.000349797
0.00035667
0.000362725
0.000367507
0.000370794
0.000372562
0.00037292
0.000372059
0.000370208
0.000367625
0.000365283
0.000361196
0.000355805
0.000347356
0.000338229
0.000330289
0.000323961
0.000319383
0.000315299
0.000311329
0.000307812
0.000304747
0.000302024
0.000299606
0.000297482
0.000295658
0.000294028
0.000292565
0.000291247
0.000290058
0.000288979
0.000287998
0.00028704
0.000286111
0.00028524
0.000284422
0.000283645
0.000282906
0.000282205
0.00028154
0.000280918
0.000280337
0.000279813
0.000279353
0.000278964
0.000278656
0.000278437
0.000278324
0.000278341
0.0002785
0.000278792
0.000279243
0.000279899
0.000280701
0.000281526
0.000282434
0.000283451
0.000284537
0.000285669
0.000286835
0.000288035
0.000289269
0.00029052
0.00029179
0.000293065
0.000294326
0.000295578
0.000296831
0.000298084
0.000299331
0.000300565
0.000301776
0.000302967
0.000304139
0.000305292
0.000306429
0.000307557
0.000308666
0.000309747
0.0003108
0.000311823
0.000312816
0.000313778
0.000314708
0.000315606
0.000316473
0.000317309
0.000318115
0.000318893
0.000319646
0.000320373
0.000321075
0.000321755
0.000322415
0.000323057
0.000323681
0.00032429
0.000324884
0.000325466
0.000326038
0.000326601
0.000327157
0.000327708
0.000328254
0.000328795
0.000329335
0.000329873
0.000330411
0.00033095
0.000331492
0.000332035
0.000332581
0.00033313
0.000333683
0.000334239
0.000334799
0.00033536
0.000335924
0.00033649
0.000337057
0.000337626
0.000338198
0.000338774
0.000339357
0.00033995
0.00034056
0.000341195
0.000341861
0.000342558
0.000343289
0.000344061
0.000344873
0.000345717
0.000346594
0.000347515