/*--------------------------------*- C++ -*----------------------------------*\
| =========                 |                                                 |
| \\      /  F ield         | OpenFOAM: The Open Source CFD Toolbox           |
|  \\    /   O peration     | Version:  2212                                  |
|   \\  /    A nd           | Website:  www.openfoam.com                      |
|    \\/     M anipulation  |                                                 |
\*---------------------------------------------------------------------------*/
FoamFile
{
    version     2.0;
    format      ascii;
    arch        "LSB;label=32;scalar=64";
    class       volScalarField;
    location    "5000";
    object      Gamma_w;
}
// * * * * * * * * * * * * * * * * * * * * * * * * * * * * * * * * * * * * * //

dimensions      [0 0 0 0 0 0 0];

internalField   nonuniform List<scalar> 
10368
(
6.24997
6.24997
6.24997
6.24997
6.24997
6.24997
6.24997
6.24998
6.24998
6.24998
6.24998
6.24998
6.24999
6.24999
6.25
6.25
6.25
6.25
6.25
6.25
6.24999
6.24996
6.24993
6.2499
6.2499
6.24989
6.24989
6.24989
6.2499
6.2499
6.24991
6.24991
6.24992
6.24992
6.24992
6.24992
6.24993
6.24993
6.24993
6.24993
6.24994
6.24994
6.24994
6.24994
6.24995
6.24995
6.24995
6.24996
6.24996
6.24996
6.24997
6.24997
6.24998
6.24998
6.24999
6.24999
6.25
6.25
6.25
6.25
6.25
6.25
6.25
6.25
6.25
6.25
6.25
6.25
6.25
6.25
6.25
6.25
6.25
6.25
6.25
6.25
6.25
6.25
6.25
6.25
6.25
6.25
6.25
6.25
6.25
6.25
6.25
6.25
6.25
6.25
6.25
6.25
6.25
6.25
6.25
6.25
6.25
6.25
6.25
6.25
6.25
6.25
6.25
6.25
6.25
6.25
6.25
6.25
6.25
6.25
6.25
6.25
6.25
6.25
6.25
6.25
6.25
6.25
6.25
6.25
6.25
6.25
6.25
6.25
6.25
6.25
6.25
6.25
6.25
6.25
6.25
6.25
6.25
6.25
6.25
6.25
6.25
6.25
6.25
6.25
6.24999
6.24999
6.24999
6.24999
6.24999
6.24999
6.24999
6.24999
6.24999
6.24999
6.24999
6.24999
6.24999
6.24999
6.24999
6.24999
6.24999
6.24999
6.24999
6.25
6.25
6.25
6.25
6.25
6.25
6.25
6.25
6.25
6.25
6.25
6.25
6.24999
6.24999
6.24999
6.24999
6.24998
6.24998
6.24998
6.24998
6.24998
6.24998
6.24998
6.24998
6.24998
6.24998
6.24998
6.24998
6.24998
6.24998
6.24998
6.24998
6.24998
3.99804
3.99419
3.96405
3.89394
3.7831
3.64559
3.50133
3.36793
3.2567
3.17294
3.1174
3.08858
3.08331
3.0984
3.13013
3.16611
2.86137
2.69718
2.67011
2.70314
2.77378
2.75961
2.74663
2.84966
2.95648
3.02782
3.10694
3.19365
3.27077
3.34562
3.43302
3.48115
3.52284
3.56067
3.59515
3.6265
3.65468
3.66359
3.67733
3.69917
3.71927
3.73754
3.75443
3.77
3.78485
3.79867
3.81221
3.82439
3.83648
3.84847
3.86043
3.87212
3.88252
3.89158
3.90142
3.91212
3.91472
3.90389
3.86211
3.76762
3.62795
3.45508
3.31074
3.19723
3.11258
3.0581
3.03309
3.02672
3.02893
3.05228
3.0915
3.12065
3.13947
3.16356
3.19878
3.24518
3.29748
3.34616
3.39197
3.43527
3.48262
3.53198
3.5813
3.62875
3.67456
3.71861
3.76002
3.79936
3.83512
3.86885
3.89828
3.92403
3.94577
3.96355
3.97773
3.98919
3.99776
4.00361
4.007
4.00829
4.00787
4.00588
4.00249
3.99799
3.99271
3.98687
3.98054
3.97376
3.96634
3.9585
3.9503
3.94187
3.93343
3.92483
3.91598
3.90659
3.89618
3.88489
3.87292
3.86044
3.84623
3.82991
3.81096
3.79017
3.76642
3.74051
3.71174
3.68196
3.65089
3.62004
3.59018
3.56619
3.55085
3.53879
3.52474
3.51113
3.50179
3.48938
3.45685
3.42304
3.40488
3.38605
3.36657
3.34652
3.32598
3.30501
3.2837
3.26212
3.24035
3.21849
3.19664
3.1749
3.13929
3.0204
2.90354
2.83351
2.8344
2.93323
3.06509
3.05708
3.04253
3.02953
3.01828
3.00899
3.0019
2.99725
2.99529
2.9963
3.00057
3.00845
3.02029
3.03648
3.05744
3.08359
3.11537
3.15314
3.19722
3.24782
3.30499
3.36852
3.43792
3.51222
3.58995
3.66891
3.74634
3.81867
3.88225
3.93348
3.97
3.99142
4.00047
4.0023
4.13991
4.15563
4.12548
4.05415
3.93981
3.79792
3.6488
3.51156
3.39769
3.31361
3.25926
3.2345
3.23413
3.25652
3.2954
3.3431
3.17964
3.10344
3.34072
3.59483
3.76984
3.78686
3.72443
3.67954
3.66172
3.6548
3.65373
3.66309
3.68052
3.70276
3.73573
3.75067
3.76449
3.77541
3.78659
3.7961
3.80648
3.8062
3.81084
3.81994
3.83078
3.84097
3.85254
3.86348
3.8763
3.88834
3.90288
3.91592
3.93204
3.94891
3.96718
3.98585
4.00423
4.02278
4.04424
4.06602
4.07553
4.06616
4.01923
3.91621
3.75882
3.5656
3.40902
3.28737
3.19699
3.13865
3.11159
3.10529
3.10938
3.13707
3.18195
3.21606
3.23831
3.2663
3.3065
3.35953
3.4189
3.4742
3.52638
3.57555
3.62919
3.68466
3.74042
3.79417
3.84617
3.89635
3.94342
3.98827
4.02917
4.06773
4.10157
4.13123
4.15649
4.1772
4.19389
4.20757
4.21799
4.22535
4.22991
4.23209
4.23236
4.23085
4.22775
4.22339
4.21809
4.21214
4.20562
4.19856
4.19078
4.18255
4.17388
4.16494
4.15596
4.1468
4.13734
4.12734
4.11623
4.10417
4.09136
4.07802
4.06285
4.04539
4.02512
4.00283
3.97735
3.94951
3.91852
3.88637
3.8528
3.81936
3.78693
3.76081
3.74406
3.73103
3.71596
3.70129
3.69142
3.67858
3.64372
3.6071
3.58755
3.56759
3.5469
3.52567
3.50393
3.48177
3.45928
3.43655
3.41367
3.39073
3.36785
3.34515
3.31414
3.23263
3.15412
3.10607
3.10287
3.1601
3.23642
3.22565
3.21148
3.19899
3.18833
3.17964
3.17306
3.1687
3.16669
3.16716
3.17028
3.17631
3.18563
3.19877
3.21644
3.23935
3.26827
3.30381
3.34648
3.39642
3.45384
3.5183
3.58946
3.66592
3.74645
3.82827
3.90896
3.98416
4.05074
4.10413
4.14274
4.16515
4.17524
4.17705
4.17454
4.23329
4.20615
4.13826
4.02477
3.88375
3.73484
3.59976
3.48958
3.41367
3.36951
3.36198
3.3796
3.42723
3.48975
3.56641
3.47584
3.4512
3.82964
4.15527
4.27638
4.15612
3.94309
3.78601
3.70768
3.66312
3.63098
3.62113
3.63286
3.65
3.67484
3.68734
3.69867
3.70427
3.71271
3.71871
3.72859
3.72956
3.73759
3.74621
3.76111
3.77381
3.79081
3.80576
3.82591
3.84451
3.86866
3.89098
3.92252
3.95478
3.99166
4.02959
4.07114
4.11943
4.1769
4.23303
4.27654
4.30389
4.2763
4.17216
3.99968
3.78767
3.6175
3.48652
3.3895
3.32692
3.29749
3.29113
3.29594
3.32668
3.37674
3.41452
3.43941
3.47066
3.51525
3.57386
3.63935
3.70056
3.75805
3.81241
3.87159
3.93265
3.99387
4.05324
4.11073
4.16597
4.21797
4.26751
4.31261
4.35526
4.39259
4.42532
4.45321
4.47606
4.4945
4.50957
4.52105
4.52911
4.53407
4.53638
4.53659
4.5348
4.53123
4.52621
4.52012
4.51328
4.5058
4.49771
4.48882
4.47937
4.4694
4.45909
4.44871
4.43813
4.42721
4.41572
4.40307
4.38936
4.37486
4.35981
4.34291
4.32358
4.30123
4.27674
4.2488
4.21831
4.18436
4.14907
4.11215
4.07521
4.03912
4.00959
3.98983
3.97466
3.9576
3.94077
3.92954
3.91614
3.879
3.8389
3.81676
3.79522
3.77278
3.74994
3.72666
3.70307
3.67925
3.65533
3.63141
3.60763
3.58411
3.56104
3.53226
3.4672
3.40597
3.36875
3.36561
3.40734
3.46286
3.45396
3.44335
3.4346
3.42768
3.42239
3.4185
3.41567
3.41349
3.41152
3.40938
3.40693
3.40455
3.40328
3.40491
3.41131
3.42458
3.44619
3.47739
3.518
3.56869
3.62823
3.69669
3.77143
3.852
3.93399
4.01641
4.09272
4.16183
4.21648
4.25765
4.28086
4.29324
4.29474
3.98709
4.04536
4.02363
3.96458
3.85981
3.72947
3.59102
3.46817
3.37072
3.31196
3.2864
3.30765
3.35607
3.45033
3.5605
3.70102
3.68247
3.72011
4.20114
4.52275
4.48482
4.13108
3.73574
3.51381
3.41278
3.35774
3.31909
3.30655
3.32156
3.34141
3.36608
3.38016
3.39252
3.39707
3.40532
3.41054
3.42132
3.42405
3.43502
3.44397
3.46212
3.4769
3.498
3.51591
3.54131
3.56452
3.59588
3.6248
3.66847
3.71383
3.7675
3.82369
3.88867
3.97075
4.07701
4.18775
4.29786
4.42525
4.47872
4.3962
4.21259
3.98306
3.80132
3.66212
3.56023
3.49527
3.46389
3.45681
3.46204
3.49506
3.54863
3.58944
3.61618
3.64972
3.69765
3.76045
3.83064
3.8962
3.9577
4.01581
4.07917
4.14426
4.20964
4.27301
4.3343
4.39325
4.44858
4.50131
4.54928
4.59442
4.63392
4.66837
4.6975
4.72122
4.74018
4.75549
4.76686
4.77446
4.77866
4.78004
4.77914
4.77602
4.7709
4.76412
4.75613
4.74728
4.73772
4.72749
4.71635
4.70452
4.69206
4.67913
4.66607
4.6528
4.63921
4.6251
4.60978
4.59335
4.57614
4.55854
4.5392
4.51746
4.49262
4.46559
4.43502
4.40172
4.36471
4.32609
4.28558
4.24471
4.20427
4.17028
4.14556
4.12747
4.10785
4.08823
4.07561
4.06257
4.02442
3.98126
3.95622
3.93382
3.91033
3.88679
3.86306
3.8393
3.81561
3.79221
3.76915
3.74672
3.72501
3.70434
3.68002
3.6286
3.58192
3.5558
3.55777
3.59586
3.64531
3.64476
3.64385
3.64489
3.64733
3.65022
3.65256
3.65299
3.64996
3.64172
3.62658
3.6034
3.57255
3.53654
3.49996
3.46757
3.4445
3.43381
3.43791
3.4558
3.48852
3.53328
3.59052
3.65568
3.72932
3.80483
3.88321
3.95522
4.02264
4.07498
4.11662
4.13926
4.15385
4.15477
3.67192
3.70778
3.69023
3.63964
3.54584
3.42911
3.30464
3.19609
3.11205
3.06788
3.05671
3.09919
3.17167
3.30853
3.47146
3.70475
3.77875
3.92212
4.50248
4.7639
4.51422
3.96353
3.41623
3.16832
3.05913
3.00348
2.96603
2.95291
2.9685
2.98965
3.01366
3.02836
3.04097
3.04486
3.05218
3.05622
3.06615
3.06898
3.08033
3.0883
3.10622
3.12064
3.14194
3.15957
3.18536
3.20867
3.24091
3.26984
3.31553
3.36394
3.42247
3.48389
3.55522
3.64877
3.7798
3.92615
4.08818
4.34562
4.57909
4.58005
4.39416
4.14458
3.95055
3.80414
3.69955
3.63423
3.60133
3.59313
3.59795
3.63244
3.68862
3.73101
3.75899
3.79429
3.84442
3.91017
3.98358
4.05191
4.11604
4.17662
4.24259
4.31025
4.37804
4.44375
4.50718
4.56806
4.62508
4.67918
4.72822
4.77416
4.8139
4.84825
4.87682
4.89959
4.91733
4.93113
4.94063
4.94597
4.94766
4.94643
4.94277
4.93662
4.92824
4.91793
4.90625
4.89364
4.88029
4.86623
4.85114
4.83519
4.81847
4.80116
4.7837
4.76613
4.74837
4.73025
4.71105
4.69078
4.66992
4.64907
4.6269
4.6025
4.57512
4.54562
4.51263
4.47677
4.43699
4.39528
4.35138
4.30663
4.26174
4.22306
4.19271
4.17296
4.15165
4.13031
4.11846
4.10778
4.0699
4.02465
3.9985
3.97742
3.95496
3.93294
3.91104
3.88954
3.86856
3.84837
3.829
3.81095
3.79416
3.77919
3.76238
3.72525
3.69378
3.68074
3.6919
3.73344
3.78504
3.79706
3.8098
3.8243
3.83937
3.85307
3.86324
3.86713
3.86148
3.84274
3.80755
3.75385
3.68277
3.59927
3.5119
3.42902
3.35924
3.30735
3.27687
3.26575
3.275
3.30016
3.3414
3.3927
3.45502
3.5202
3.59032
3.65464
3.7166
3.76418
3.80342
3.82433
3.83926
3.83968
3.31523
3.34443
3.32969
3.28571
3.20212
3.09809
2.98697
2.891
2.81773
2.78282
2.77899
2.83009
2.9117
3.06823
3.26116
3.57347
3.74713
4.05892
4.75629
4.91599
4.47863
3.82697
3.14451
2.86219
2.73819
2.67857
2.64095
2.62574
2.6391
2.66045
2.6841
2.69954
2.71276
2.71677
2.72352
2.72673
2.73577
2.73844
2.74919
2.75581
2.77205
2.7851
2.80493
2.8209
2.84475
2.8659
2.89582
2.9213
2.9627
3.00746
3.06227
3.12021
3.18582
3.27172
3.39982
3.54996
3.71676
4.04416
4.5049
4.70983
4.5579
4.2831
4.07239
3.91772
3.81255
3.74983
3.71497
3.70453
3.70819
3.74303
3.80047
3.84346
3.87181
3.90781
3.95933
4.02656
4.10147
4.17105
4.23605
4.29756
4.36449
4.43282
4.50112
4.56716
4.63068
4.69135
4.7479
4.80121
4.84912
4.89346
4.93115
4.96299
4.9886
5.00807
5.02239
5.03247
5.03788
5.03873
5.03584
5.03007
5.02179
5.01078
4.99729
4.98167
4.96461
4.94667
4.92813
4.90892
4.88861
4.86734
4.84526
4.82259
4.79996
4.77755
4.75534
4.73315
4.71018
4.68636
4.66248
4.6393
4.61541
4.58949
4.56082
4.53014
4.49609
4.459
4.4178
4.37437
4.32851
4.28132
4.23364
4.19179
4.1591
4.1416
4.12133
4.10138
4.09407
4.08749
4.05016
4.00385
3.98006
3.96254
3.94321
3.92454
3.90619
3.88849
3.87158
3.85577
3.84111
3.82819
3.81681
3.80774
3.79808
3.77292
3.75366
3.75067
3.76838
3.81167
3.86391
3.88465
3.90678
3.9305
3.95421
3.97514
3.99007
3.99479
3.98443
3.95408
3.89983
3.82009
3.7172
3.59743
3.47093
3.34755
3.23809
3.1491
3.08577
3.04597
3.0311
3.03556
3.05903
3.09497
3.14427
3.19785
3.25805
3.31362
3.36848
3.41046
3.44572
3.46439
3.47819
3.47825
2.97223
3.00432
2.99181
2.9531
2.8785
2.78563
2.6863
2.60093
2.53612
2.50691
2.50584
2.55727
2.63797
2.79663
2.99532
3.34784
3.59622
4.11247
4.94088
4.98161
4.42638
3.76126
2.96841
2.61876
2.46635
2.39502
2.35293
2.33309
2.34107
2.361
2.38401
2.40009
2.4142
2.41891
2.42541
2.42816
2.43644
2.43898
2.44896
2.45447
2.4688
2.48037
2.49844
2.51259
2.53405
2.55251
2.57936
2.60062
2.63589
2.67464
2.7228
2.77307
2.82744
2.8957
3.0045
3.13827
3.27676
3.59139
4.20014
4.71961
4.70083
4.4114
4.17757
4.01109
3.90737
3.85024
3.81174
3.79668
3.7975
3.83125
3.88846
3.93021
3.95771
3.99339
4.04495
4.11193
4.18634
4.25497
4.31877
4.37928
4.445
4.51177
4.57819
4.64211
4.70322
4.76124
4.81479
4.86479
4.90908
4.94926
4.98233
5.0092
5.02948
5.0436
5.05264
5.05726
5.05701
5.05186
5.04334
5.03225
5.01871
5.00228
4.98329
4.96211
4.93972
4.91674
4.8935
4.86974
4.84493
4.81915
4.79268
4.76586
4.73951
4.71393
4.68909
4.66472
4.63989
4.6145
4.58974
4.56638
4.54279
4.51713
4.4888
4.45842
4.42465
4.38753
4.3461
4.30217
4.25565
4.2075
4.15878
4.11514
4.08495
4.0719
4.05409
4.03723
4.03542
4.03138
3.99319
3.94585
3.92573
3.9111
3.89418
3.87777
3.86161
3.84607
3.83124
3.81753
3.80502
3.79406
3.78462
3.77749
3.77038
3.751
3.73672
3.73596
3.75224
3.78972
3.83527
3.8562
3.87895
3.9033
3.92756
3.94859
3.96259
3.96463
3.94915
3.91105
3.8471
3.75684
3.64333
3.51233
3.37265
3.23272
3.10303
2.99096
2.90363
2.84025
2.80364
2.78824
2.79467
2.81531
2.85124
2.893
2.94288
2.98956
3.03697
3.0732
3.10407
3.12034
3.13243
3.13219
2.6529
2.69291
2.68257
2.64839
2.58188
2.49903
2.41026
2.33419
2.27651
2.25144
2.25132
2.30013
2.37499
2.52484
2.71439
3.07293
3.36022
4.05092
4.98793
4.93023
4.33658
3.71643
2.90076
2.43999
2.24319
2.15063
2.09892
2.07203
2.07182
2.08853
2.11024
2.12664
2.14162
2.14738
2.15394
2.15651
2.16417
2.16664
2.17589
2.18052
2.19296
2.20308
2.21937
2.23173
2.25077
2.26649
2.29009
2.30722
2.33587
2.36773
2.40811
2.4494
2.49157
2.54014
2.62243
2.72943
2.82732
3.07812
3.70483
4.50864
4.7701
4.52817
4.27656
4.09484
3.99437
3.94559
3.89904
3.8748
3.8699
3.90008
3.95466
3.99258
4.01771
4.05142
4.10128
4.16574
4.23694
4.30199
4.36208
4.41937
4.48154
4.54426
4.60629
4.66564
4.72204
4.77514
4.82365
4.86835
4.9072
4.94141
4.96833
4.98897
5.00302
5.01135
5.01502
5.01426
5.00868
4.99794
4.98485
4.96962
4.95202
4.93144
4.90829
4.88309
4.85704
4.83081
4.80469
4.77813
4.75051
4.72191
4.69282
4.66367
4.63545
4.60852
4.58271
4.55761
4.53219
4.50639
4.48171
4.45884
4.43582
4.41037
4.38212
4.35158
4.3175
4.27968
4.23742
4.19247
4.14493
4.09567
4.04601
4.00078
3.97508
3.96453
3.94767
3.93255
3.93305
3.92724
3.8864
3.83775
3.81958
3.80494
3.78776
3.77079
3.7539
3.73745
3.72155
3.70664
3.6927
3.67996
3.66857
3.65927
3.65027
3.63132
3.61616
3.61161
3.62071
3.64714
3.68097
3.6962
3.7134
3.73219
3.75095
3.76667
3.77563
3.77319
3.7542
3.71427
3.6509
3.56435
3.45762
3.33541
3.20441
3.07059
2.94217
2.82544
2.72813
2.65092
2.59852
2.56758
2.55919
2.56506
2.58744
2.61709
2.65632
2.69393
2.73377
2.76412
2.79056
2.80429
2.81452
2.81391
2.35824
2.40725
2.39916
2.36902
2.30989
2.23614
2.15695
2.08924
2.03775
2.01593
2.01581
2.06061
2.12745
2.26369
2.43451
2.77521
3.07136
3.85629
4.84129
4.74105
4.17495
3.63226
2.8933
2.32105
2.06494
1.94089
1.87429
1.8383
1.82775
1.83954
1.85904
1.87519
1.89081
1.89771
1.90452
1.90712
1.91427
1.91673
1.92527
1.92927
1.93994
1.94867
1.9632
1.9739
1.99062
2.00371
2.02415
2.03757
2.05993
2.08476
2.11721
2.14941
2.18028
2.21076
2.26616
2.34338
2.40062
2.57064
3.1197
4.0512
4.67204
4.59528
4.36613
4.17713
4.08414
4.04605
3.98492
3.94415
3.92863
3.95139
3.99962
4.03011
4.05099
4.08067
4.12677
4.18589
4.251
4.3096
4.36373
4.41604
4.47284
4.52969
4.58565
4.63905
4.68955
4.73683
4.77956
4.81841
4.85139
4.87928
4.89999
4.91462
4.92296
4.92633
4.92553
4.92026
4.91033
4.8949
4.87848
4.86015
4.83939
4.81548
4.78902
4.7607
4.73193
4.70326
4.67489
4.64605
4.61605
4.58508
4.5538
4.52275
4.49299
4.46482
4.43789
4.41166
4.38506
4.35814
4.33258
4.30883
4.28468
4.25772
4.22779
4.19532
4.15921
4.11918
4.0748
4.02777
3.97837
3.92742
3.87636
3.83054
3.80803
3.79672
3.77872
3.76322
3.76211
3.75125
3.70747
3.65819
3.63993
3.62325
3.60408
3.58491
3.56566
3.54678
3.52836
3.51078
3.49379
3.47781
3.46303
3.45007
3.43758
3.41701
3.39889
3.38877
3.38932
3.40388
3.42518
3.43285
3.44236
3.45333
3.46434
3.47282
3.47562
3.46896
3.44869
3.41132
3.35491
3.2798
3.18854
3.08474
2.97336
2.85835
2.74545
2.63897
2.5455
2.46615
2.40666
2.36573
2.34717
2.34106
2.35096
2.36875
2.39727
2.42562
2.45779
2.48203
2.50405
2.51505
2.52337
2.52227
2.08815
2.14353
2.13768
2.11119
2.05886
1.9935
1.92308
1.86296
1.817
1.79779
1.79714
1.83716
1.89496
2.01526
2.16213
2.46913
2.75206
3.54315
4.50945
4.42703
3.93188
3.48306
2.87354
2.25229
1.92699
1.76124
1.67495
1.6284
1.6063
1.61193
1.62827
1.64348
1.65929
1.66725
1.67437
1.67716
1.68385
1.68637
1.6942
1.69777
1.7068
1.7142
1.72701
1.73616
1.75069
1.76136
1.77876
1.78901
1.80583
1.82402
1.84896
1.87265
1.89394
1.90962
1.94158
1.99089
2.01469
2.10738
2.5356
3.43338
4.34635
4.54339
4.41113
4.24789
4.17435
4.15203
4.07301
4.00836
3.97584
3.9857
4.02249
4.04138
4.05647
4.08022
4.12037
4.17156
4.22808
4.27837
4.3254
4.37219
4.42291
4.47319
4.52251
4.56958
4.61387
4.65501
4.69157
4.72411
4.75064
4.77159
4.78553
4.79365
4.79587
4.79385
4.78802
4.77761
4.76272
4.74203
4.72175
4.69957
4.67486
4.6469
4.61662
4.58478
4.55289
4.52134
4.49013
4.45841
4.42551
4.3918
4.35803
4.32477
4.29311
4.26314
4.23434
4.20614
4.17743
4.14849
4.12092
4.09494
4.06816
4.03845
4.00574
3.97043
3.93158
3.88893
3.84231
3.79332
3.74239
3.69025
3.63866
3.59427
3.57306
3.55947
3.53969
3.52294
3.51832
3.50184
3.45649
3.40812
3.38914
3.37031
3.34919
3.32797
3.30658
3.28559
3.26499
3.245
3.22541
3.20668
3.189
3.17288
3.15734
3.13522
3.11442
3.09943
3.09262
3.09698
3.10737
3.10803
3.11028
3.1138
3.11748
3.11926
3.11676
3.10715
3.08733
3.05469
3.00765
2.94645
2.873
2.78997
2.70102
2.60877
2.51706
2.42844
2.34778
2.2757
2.2177
2.1734
2.14854
2.13524
2.13581
2.14341
2.16184
2.18106
2.20555
2.22349
2.24107
2.24907
2.25543
2.2537
1.84417
1.89951
1.89564
1.8725
1.82643
1.76878
1.70644
1.65323
1.61222
1.59509
1.59357
1.62824
1.67665
1.78
1.90118
2.1653
2.42013
3.15023
4.04812
4.02304
3.62121
3.26908
2.80181
2.2113
1.82457
1.61207
1.50137
1.49138
1.50292
1.52541
1.54759
1.56564
1.58047
1.58914
1.59421
1.59701
1.59959
1.60072
1.6019
1.60162
1.60171
1.60257
1.60366
1.60441
1.60477
1.60508
1.60511
1.60243
1.59959
1.59927
1.60328
1.61938
1.63296
1.6375
1.65118
1.67687
1.67665
1.70693
2.0084
2.77268
3.82054
4.31506
4.35495
4.26665
4.23369
4.2376
4.1499
4.06156
4.00769
3.99913
4.01905
4.02332
4.03194
4.04919
4.08132
4.1226
4.16904
4.21009
4.24968
4.29062
4.33447
4.37715
4.4187
4.45809
4.49463
4.52786
4.5563
4.58038
4.59823
4.61008
4.61524
4.61495
4.60929
4.6001
4.58747
4.57034
4.54917
4.5223
4.49703
4.46997
4.44041
4.40779
4.37336
4.33789
4.30283
4.26836
4.23425
4.1997
4.16406
4.12795
4.09209
4.05704
4.02381
3.99221
3.96168
3.93163
3.90096
3.87023
3.84074
3.81255
3.78318
3.75099
3.71591
3.67841
3.63761
3.59341
3.54576
3.49622
3.44522
3.39356
3.34351
3.30221
3.28165
3.26601
3.24512
3.22744
3.21925
3.19839
3.15344
3.10766
3.08835
3.06827
3.04617
3.02389
3.00145
2.97944
2.95777
2.93639
2.91539
2.89511
2.87572
2.85765
2.84017
2.81735
2.80014
2.84518
2.896
2.95041
3.0036
3.0502
3.09669
3.14114
3.18147
3.21429
3.23557
3.23998
3.22224
3.17875
3.10799
3.0113
2.89311
2.75953
2.6177
2.47291
2.33103
2.20071
2.13637
2.07671
2.02616
1.98447
1.95744
1.94006
1.93506
1.93574
1.946
1.95702
1.97415
1.98584
1.99895
2.0037
2.00807
2.00551
1.6922
1.74155
1.734
1.71627
1.68999
1.65691
1.62257
1.58967
1.56182
1.54024
1.52449
1.51629
1.51297
1.55877
1.65496
1.87291
2.09124
2.72206
3.52211
3.5682
3.26585
3.00457
2.67181
2.20166
1.87981
1.68175
1.58977
1.55246
1.54849
1.56606
1.59043
1.61317
1.63363
1.64655
1.65508
1.66036
1.66539
1.66848
1.67169
1.67285
1.67432
1.67636
1.67899
1.6809
1.68253
1.68364
1.68463
1.6823
1.67923
1.67809
1.67711
1.67424
1.66256
1.64236
1.62429
1.60503
1.54459
1.47323
1.56282
2.1563
3.18021
3.9122
4.15919
4.18417
4.21229
4.25325
4.17731
4.07825
4.00562
3.97648
3.97679
3.96615
3.96844
3.97962
4.00238
4.03188
4.06687
4.09793
4.12903
4.16257
4.19742
4.23026
4.26161
4.29074
4.31686
4.33944
4.35712
4.37021
4.37715
4.37808
4.37297
4.3631
4.34863
4.33143
4.31137
4.28722
4.25966
4.22735
4.19718
4.16567
4.13181
4.09542
4.05787
4.0199
3.9828
3.94651
3.91063
3.87441
3.83732
3.80013
3.76348
3.72789
3.69421
3.66202
3.63076
3.59987
3.56838
3.53695
3.50661
3.47722
3.44641
3.41299
3.37688
3.33864
3.29744
3.25337
3.20644
3.15814
3.10892
3.05972
3.01318
2.97599
2.95626
2.93955
2.9186
2.90075
2.88975
2.86635
2.82355
2.78167
2.77963
2.80749
2.83061
2.853
2.87491
2.89712
2.91967
2.94266
2.96637
2.99118
3.01731
3.04517
3.07482
3.10507
3.14176
3.18555
3.2347
3.28703
3.33793
3.38222
3.42591
3.46709
3.50371
3.53258
3.54991
3.55066
3.52996
3.48431
3.41196
3.31372
3.19343
3.05663
2.91017
2.75913
2.60932
2.46497
2.33135
2.20914
2.10207
2.01035
1.93695
1.87877
1.83566
1.80387
1.78206
1.76664
1.76173
1.76768
1.77647
1.77779
1.78016
1.77657
1.8003
1.844
1.83712
1.81926
1.79211
1.7578
1.72195
1.68787
1.65898
1.63743
1.62164
1.61503
1.61247
1.61854
1.62195
1.67295
1.77836
2.29617
2.98476
3.36468
3.40079
3.30573
2.9942
2.53078
2.14108
1.8591
1.69822
1.61812
1.58783
1.59259
1.61378
1.63791
1.66209
1.6792
1.69184
1.70023
1.70839
1.71398
1.7197
1.72264
1.7258
1.72923
1.73361
1.73679
1.73975
1.74174
1.7437
1.74178
1.73855
1.73641
1.73449
1.7301
1.7169
1.69315
1.66952
1.64275
1.57522
1.48443
1.5029
1.75528
2.51724
3.38354
3.82411
3.97656
4.07531
4.15759
4.1116
4.01982
3.93774
3.89132
3.87369
3.85113
3.84778
3.85315
3.86628
3.8831
3.9055
3.92611
3.94744
3.97177
3.99551
4.01666
4.03605
4.05327
4.06752
4.07819
4.08423
4.08572
4.08165
4.07202
4.05735
4.03889
4.01675
3.99272
3.96655
3.93691
3.90452
3.86904
3.83543
3.80122
3.76488
3.72669
3.68796
3.64936
3.61195
3.57552
3.53951
3.50328
3.46645
3.42983
3.39397
3.35931
3.32652
3.29503
3.26433
3.23389
3.2029
3.17208
3.14215
3.11283
3.08198
3.04875
3.0131
2.97565
2.93561
2.89324
2.84863
2.84224
2.84717
2.85307
2.86267
2.88236
2.91838
2.95697
2.98822
3.01997
3.05613
3.07709
3.07396
3.07303
3.10036
3.12816
3.15104
3.17292
3.19435
3.21603
3.23772
3.25983
3.28263
3.30645
3.33155
3.3583
3.38677
3.41558
3.45042
3.49187
3.53818
3.58722
3.63463
3.67548
3.71529
3.75219
3.7843
3.80863
3.82175
3.81899
3.7959
3.7492
3.67691
3.5794
3.45985
3.32314
3.17562
3.02208
2.86811
2.71777
2.57639
2.44463
2.3265
2.22232
2.13564
2.06355
2.00725
1.96341
1.93196
1.90869
1.89139
1.8785
1.86653
1.85848
1.84746
1.84274
1.89227
1.93251
1.92624
1.90839
1.88057
1.84528
1.80815
1.77303
1.74309
1.72127
1.70501
1.69893
1.69584
1.70248
1.70384
1.75586
1.75375
1.93333
2.88387
3.56879
3.66726
3.62216
3.37161
2.86782
2.42933
2.08208
1.84371
1.70347
1.63415
1.61582
1.62643
1.64703
1.67183
1.69134
1.70707
1.718
1.72873
1.73648
1.7447
1.74981
1.75527
1.76053
1.76714
1.77183
1.7763
1.77941
1.78253
1.78121
1.77808
1.77506
1.77217
1.76614
1.75149
1.72458
1.69614
1.66192
1.58818
1.47954
1.46582
1.68145
2.19697
2.79399
3.37985
3.65217
3.81966
3.94133
3.93333
3.86112
3.77952
3.72242
3.69213
3.66252
3.65493
3.65479
3.65912
3.6644
3.67477
3.68572
3.6973
3.71196
3.7244
3.73406
3.74195
3.74787
3.7511
3.75094
3.74675
3.73831
3.72524
3.70734
3.68556
3.66098
3.63371
3.60528
3.57535
3.54262
3.50785
3.4716
3.43669
3.40182
3.36512
3.32724
3.28928
3.25188
3.21583
3.1808
3.14619
3.11147
3.07641
3.04177
3.00802
2.97552
2.94473
2.96269
2.9819
3.00062
3.01819
3.03545
3.05334
3.07148
3.08759
3.1008
3.11139
3.12026
3.12673
3.13114
3.13383
3.13644
3.13965
3.14474
3.15504
3.17716
3.2154
3.25476
3.28659
3.319
3.35389
3.37149
3.36599
3.36527
3.39341
3.42083
3.44309
3.46422
3.48491
3.50563
3.52615
3.54703
3.56854
3.59097
3.61458
3.63973
3.66648
3.69327
3.72558
3.76393
3.80664
3.85163
3.89484
3.93161
3.96696
3.99912
4.02639
4.04606
4.05505
4.04905
4.02413
3.97719
3.90614
3.81097
3.6942
3.56004
3.41425
3.26124
3.10627
2.95318
2.80722
2.66899
2.54263
2.42848
2.33052
2.24603
2.1771
2.12057
2.07761
2.0447
2.01984
2.00031
1.98291
1.96962
1.95493
1.94727
1.97193
2.00799
2.00228
1.98451
1.95623
1.92019
1.88199
1.84594
1.81493
1.79253
1.77533
1.76872
1.76396
1.76908
1.76641
1.81421
1.81123
1.98999
2.9373
3.69741
3.86789
3.88167
3.70679
3.20451
2.72908
2.34243
2.03621
1.82472
1.70283
1.64897
1.63908
1.64925
1.66996
1.68889
1.70579
1.71812
1.73049
1.73975
1.74977
1.75661
1.76381
1.77044
1.77865
1.785
1.79145
1.7961
1.80091
1.80055
1.7979
1.79452
1.79091
1.78354
1.76774
1.73846
1.70623
1.66571
1.58689
1.46363
1.41714
1.58106
2.07059
2.64047
2.86893
3.24011
3.46665
3.62308
3.65361
3.60567
3.53138
3.47025
3.43354
3.4018
3.39181
3.38726
3.38453
3.38085
3.38175
3.3848
3.38828
3.39439
3.39724
3.39744
3.39602
3.39291
3.38749
3.37904
3.36723
3.35167
3.33247
3.30928
3.28333
3.25542
3.22573
3.19547
3.16417
3.13073
3.09595
3.06072
3.02657
2.99277
2.99337
3.01888
3.04275
3.06572
3.08854
3.11083
3.13188
3.15113
3.16853
3.18515
3.20172
3.2188
3.23695
3.25548
3.27386
3.29152
3.30791
3.32397
3.34051
3.35688
3.37075
3.38142
3.38929
3.39536
3.39895
3.4006
3.40083
3.40149
3.4034
3.40825
3.41984
3.44454
3.48454
3.52432
3.55648
3.58907
3.62188
3.63616
3.62871
3.62869
3.6571
3.6839
3.70527
3.72556
3.74533
3.76474
3.78388
3.80331
3.82329
3.84406
3.86589
3.88913
3.91381
3.93818
3.96753
4.00234
4.04101
4.08156
4.12025
4.15266
4.18338
4.21073
4.23319
4.24836
4.25349
4.24462
4.21839
4.17185
4.10287
4.01111
3.89855
3.76871
3.62675
3.47665
3.32328
3.17018
3.02245
2.88059
2.74873
2.62718
2.52016
2.42512
2.34486
2.2763
2.22158
2.1772
2.14301
2.11539
2.09204
2.07289
2.05378
2.04228
2.04094
2.07139
2.06609
2.04845
2.01991
1.98334
1.94425
1.90739
1.87529
1.85199
1.83343
1.82533
1.8179
1.81974
1.81128
1.85026
1.84196
2.00876
2.92864
3.74953
3.99489
4.0719
3.97969
3.52166
3.03247
2.62792
2.27491
1.99304
1.80844
1.70702
1.66491
1.65558
1.66544
1.67924
1.69413
1.70585
1.71829
1.728
1.7388
1.74663
1.75487
1.7623
1.7714
1.77879
1.78649
1.79221
1.7981
1.79903
1.79751
1.79464
1.79093
1.78296
1.76662
1.7362
1.70125
1.65656
1.57401
1.44066
1.36308
1.47164
1.88688
2.55626
2.93037
2.96016
3.04856
3.2343
3.30075
3.27774
3.21378
3.15491
3.11718
3.08703
3.07638
3.069
3.06149
3.05187
3.0465
3.0438
3.04153
3.04105
3.03685
3.03028
3.02229
3.01292
3.00158
2.98767
2.97102
2.95123
2.92863
2.90291
2.91611
2.95671
2.99641
3.03594
3.0743
3.10978
3.14304
3.17513
3.20701
3.23784
3.26508
3.28965
3.31275
3.33513
3.35744
3.37913
3.39943
3.41781
3.43437
3.45028
3.46625
3.48283
3.50044
3.51827
3.53574
3.55227
3.5674
3.58214
3.59714
3.61153
3.62295
3.63092
3.63601
3.63923
3.64
3.63905
3.63711
3.6362
3.6373
3.64249
3.6558
3.68301
3.72425
3.76416
3.79641
3.82868
3.8589
3.87015
3.86131
3.86231
3.89047
3.91643
3.9368
3.95618
3.97484
3.99279
4.01045
4.02831
4.04662
4.06558
4.0855
4.10666
4.12907
4.15082
4.17697
4.20802
4.24247
4.27848
4.31262
4.34071
4.3669
4.38961
4.40755
4.41856
4.42024
4.40894
4.38187
4.33624
4.2699
4.18228
4.07488
3.95061
3.81401
3.66863
3.51893
3.36811
3.22103
3.07808
2.94327
2.81685
2.7031
2.59959
2.50965
2.43027
2.36443
2.30841
2.26361
2.22597
2.19512
2.16954
2.14544
2.12933
2.09723
2.12364
2.1184
2.10093
2.07228
2.0354
1.99563
1.95807
1.92489
1.90043
1.88012
1.86973
1.85889
1.85582
1.8404
1.86666
1.8493
1.99565
2.86656
3.72768
4.04388
4.18335
4.17427
3.79703
3.32395
2.91849
2.54767
2.2101
1.95993
1.80322
1.7186
1.67962
1.66981
1.67208
1.6801
1.68796
1.69795
1.70635
1.71636
1.72407
1.7323
1.73979
1.74892
1.75663
1.76477
1.77101
1.77731
1.77905
1.77815
1.77556
1.77183
1.76429
1.74851
1.71861
1.6821
1.63596
1.55151
1.41338
1.30831
1.36396
1.68246
2.35306
2.92714
3.12251
3.20906
3.21368
3.00101
2.90795
2.85647
2.80411
2.76919
2.74291
2.73292
2.72424
2.71413
2.70134
2.69245
2.68612
2.68025
2.67524
2.70863
2.75757
2.80722
2.85734
2.90696
2.9552
3.00172
3.04594
3.08826
3.12817
3.16726
3.20587
3.24388
3.28192
3.31875
3.35278
3.38491
3.41622
3.44727
3.47719
3.50344
3.52726
3.54977
3.57174
3.59365
3.61484
3.63451
3.65217
3.66807
3.68343
3.69894
3.71511
3.73219
3.7493
3.76583
3.78118
3.79502
3.80836
3.8217
3.83395
3.84285
3.84811
3.85046
3.85093
3.84906
3.8458
3.84208
3.84004
3.84086
3.84686
3.86209
3.89153
3.93352
3.97327
4.00536
4.03682
4.06428
4.07295
4.06332
4.06543
4.09291
4.11787
4.13724
4.15565
4.17303
4.18951
4.20566
4.22192
4.23852
4.25565
4.2736
4.29265
4.31273
4.33179
4.35469
4.38195
4.4122
4.44378
4.47354
4.49754
4.5195
4.53794
4.55178
4.5591
4.55781
4.54456
4.51712
4.47281
4.40952
4.32652
4.2249
4.10702
3.97687
3.83756
3.69313
3.54645
3.40205
3.26027
3.12484
2.99595
2.8778
2.76806
2.67033
2.5817
2.50579
2.43879
2.38328
2.33476
2.29468
2.26096
2.23107
2.20977
2.14072
2.16531
2.15975
2.14246
2.11387
2.0769
2.03666
1.99855
1.96433
1.93854
1.91617
1.90289
1.88809
1.87884
1.85571
1.86689
1.83696
1.95674
2.76071
3.63787
4.01486
4.21104
4.28061
4.00902
3.58388
3.19867
2.83395
2.4668
2.16014
1.94612
1.81271
1.73576
1.69704
1.67992
1.67435
1.67357
1.67722
1.68157
1.68842
1.69427
1.70091
1.70737
1.71538
1.72255
1.73012
1.7362
1.74214
1.74415
1.74327
1.74077
1.73653
1.72913
1.7135
1.6855
1.64921
1.60431
1.52071
1.38317
1.25594
1.26385
1.48903
2.06286
2.78613
3.16462
3.3484
3.42455
3.26959
3.01201
2.80839
2.69397
2.64759
2.63632
2.65509
2.67922
2.70501
2.73116
2.76671
2.80945
2.85665
2.90647
2.9531
2.99928
3.04614
3.09348
3.14021
3.18548
3.22895
3.27011
3.30945
3.34663
3.38342
3.42
3.45632
3.49284
3.52815
3.56082
3.59196
3.62255
3.65288
3.68196
3.7074
3.73066
3.75276
3.77448
3.7961
3.81689
3.83605
3.85314
3.86855
3.88351
3.89865
3.91446
3.93102
3.94739
3.96295
3.97711
3.98964
4.00153
4.01313
4.02318
4.02959
4.03224
4.03202
4.02996
4.02578
4.0206
4.01553
4.01284
4.01383
4.02097
4.03811
4.06933
4.11154
4.15086
4.18254
4.21279
4.23757
4.24425
4.23443
4.23757
4.26402
4.28785
4.30628
4.32373
4.3397
4.35474
4.36942
4.38411
4.39905
4.4144
4.43044
4.44743
4.46522
4.48165
4.50137
4.52495
4.55117
4.57858
4.60428
4.62454
4.64269
4.65733
4.6676
4.67177
4.66804
4.65333
4.62598
4.58335
4.52342
4.44535
4.34991
4.23897
4.11599
3.98374
3.8458
3.70473
3.56472
3.42602
3.29207
3.16294
3.04266
2.92895
2.8255
2.72947
2.64491
2.56801
2.50229
2.44298
2.39306
2.34949
2.3124
2.28471
2.17549
2.19639
2.1904
2.1733
2.14496
2.10812
2.06767
2.02921
1.99406
1.96687
1.94227
1.92568
1.9066
1.89047
1.85901
1.85498
1.80887
1.89808
2.62222
3.48952
3.91284
4.15636
4.29605
4.14137
3.79206
3.44898
3.10614
2.74359
2.40247
2.13835
1.95491
1.83451
1.7609
1.71683
1.69019
1.67467
1.66661
1.66295
1.66311
1.66452
1.6672
1.67095
1.67621
1.68161
1.68731
1.69232
1.69692
1.6985
1.69691
1.69414
1.68895
1.68145
1.66558
1.63945
1.60374
1.56092
1.48226
1.34999
1.20755
1.17472
1.31952
1.75332
2.51485
3.07279
3.37179
3.53642
3.46443
3.24475
3.04403
2.9256
2.87656
2.86553
2.88374
2.90604
2.92931
2.95289
2.98651