/*--------------------------------*- C++ -*----------------------------------*\
| =========                 |                                                 |
| \\      /  F ield         | OpenFOAM: The Open Source CFD Toolbox           |
|  \\    /   O peration     | Version:  2212                                  |
|   \\  /    A nd           | Website:  www.openfoam.com                      |
|    \\/     M anipulation  |                                                 |
\*---------------------------------------------------------------------------*/
FoamFile
{
    version     2.0;
    format      ascii;
    arch        "LSB;label=32;scalar=64";
    class       volScalarField;
    location    "5000";
    object      k;
}
// * * * * * * * * * * * * * * * * * * * * * * * * * * * * * * * * * * * * * //

dimensions      [0 2 -2 0 0 0 0];

internalField   nonuniform List<scalar> 
10368
(
0.0152918
0.0156977
0.0153542
0.0148996
0.0145889
0.0141972
0.0138246
0.013246
0.0125249
0.0113891
0.0101094
0.00827501
0.00653008
0.00442399
0.00271622
0.0011304
0.000509445
1.17671e-05
4.13056e-05
0.00124225
0.00647775
0.0209622
0.0409876
0.0550978
0.0604651
0.0661026
0.0702839
0.0693663
0.0661085
0.063572
0.0612373
0.0596816
0.0584618
0.05798
0.0568989
0.0561058
0.0547272
0.0538172
0.0522178
0.0510927
0.0490347
0.0475745
0.0455955
0.0440038
0.0418513
0.0399304
0.0375338
0.0350938
0.0316955
0.028619
0.0252456
0.0218956
0.0179546
0.0134016
0.00904109
0.00562231
0.00245724
0.000361414
0.00037044
0.000596466
0.000431876
0.000285851
0.000202053
0.00016249
0.000137036
7.8102e-05
3.82688e-05
2.31793e-05
1.88807e-05
1.87644e-05
1.96537e-05
2.31035e-05
2.77643e-05
3.19472e-05
3.57109e-05
3.93478e-05
4.41315e-05
4.93138e-05
5.58745e-05
6.2425e-05
6.86253e-05
7.50831e-05
8.19913e-05
8.94969e-05
9.73566e-05
0.000105794
0.000114534
0.00012393
0.000133759
0.00014405
0.000155846
0.000168707
0.000183176
0.000199672
0.0002172
0.000235127
0.000254629
0.000275649
0.000299642
0.000324865
0.000350066
0.000376783
0.000404939
0.000435652
0.000468985
0.000504453
0.000541428
0.000579155
0.000617766
0.000658552
0.000701593
0.000747978
0.000797741
0.000849695
0.000903442
0.000957186
0.00101052
0.0010652
0.00112332
0.00118199
0.0012372
0.00128778
0.00133752
0.00138671
0.00143508
0.0014837
0.00153513
0.00159367
0.00165954
0.00173554
0.00183025
0.00196025
0.00212797
0.00229219
0.00241463
0.00255112
0.00271057
0.00276707
0.00272755
0.00278846
0.00296109
0.00306168
0.00315911
0.00324281
0.0033198
0.00338833
0.00344963
0.00350112
0.0035422
0.00356972
0.00358353
0.00357665
0.00354981
0.00350358
0.00344039
0.00335205
0.00322844
0.00305335
0.00282174
0.00253459
0.00219597
0.0018233
0.00143245
0.00105109
0.000707372
0.000431009
0.000270486
0.000517238
0.00095877
0.0016459
0.00258309
0.00372757
0.00499682
0.00630689
0.00755825
0.00869059
0.0096504
0.0104644
0.0110893
0.0115931
0.0119285
0.0122075
0.0123497
0.0124942
0.0125057
0.0125674
0.0124897
0.0124996
0.0123622
0.0123452
0.0121711
0.0121985
0.0136949
0.0146441
0.0142441
0.0137414
0.0133975
0.0129757
0.0126002
0.0120293
0.0113632
0.0103101
0.00919343
0.00758297
0.00614864
0.00439275
0.00303292
0.00169384
0.000926484
0.00035731
0.000805178
0.00241606
0.00532651
0.0109785
0.0218477
0.0354337
0.0469462
0.0570498
0.0651436
0.0694003
0.0703855
0.0696054
0.0677988
0.0662936
0.0647595
0.0640819
0.0628463
0.0620451
0.0605032
0.0595191
0.0576773
0.0564579
0.054268
0.0526775
0.0504477
0.0487491
0.0464186
0.0445064
0.0419938
0.0397585
0.0367333
0.0339726
0.0308626
0.0278107
0.0243348
0.0205785
0.0167236
0.013049
0.00914799
0.00531784
0.00268126
0.00136992
0.000721526
0.000354003
0.000185861
0.000118662
9.53389e-05
6.84808e-05
4.12461e-05
2.69907e-05
2.15897e-05
2.03201e-05
2.0513e-05
2.17488e-05
2.37876e-05
2.60872e-05
2.85008e-05
3.10569e-05
3.4164e-05
3.77095e-05
4.19116e-05
4.65105e-05
5.13951e-05
5.6717e-05
6.25899e-05
6.90873e-05
7.61979e-05
8.39836e-05
9.24561e-05
0.000101702
0.000111787
0.000122702
0.000134752
0.000147956
0.000162442
0.000178399
0.00019572
0.000214107
0.00023376
0.000254698
0.000277534
0.000301927
0.000327269
0.000353798
0.000381644
0.000411185
0.000442608
0.000475914
0.000510853
0.000547206
0.000584888
0.000624379
0.000665919
0.000709951
0.000756792
0.000806226
0.000858121
0.000912055
0.000967647
0.00102548
0.00108652
0.00115065
0.00121636
0.00128303
0.0013514
0.00142277
0.00149704
0.00157507
0.00165763
0.00174719
0.00184448
0.00195072
0.00206866
0.00220516
0.00236548
0.0025365
0.00269813
0.00285742
0.00302852
0.00318629
0.00328643
0.00339262
0.00356147
0.00374824
0.00392003
0.00409205
0.00426454
0.00443874
0.00461638
0.00479723
0.00498204
0.00516959
0.00536082
0.0055538
0.00575008
0.00595793
0.00619861
0.00646904
0.00675236
0.00702059
0.00724909
0.00743944
0.00760648
0.00774896
0.0078683
0.00796946
0.00805838
0.00813541
0.00820591
0.00831772
0.00844622
0.00860097
0.0087857
0.0090016
0.00924219
0.00950161
0.00976215
0.0100237
0.0102675
0.0105112
0.0107069
0.0108955
0.0110049
0.0111274
0.0111609
0.0112323
0.011189
0.011218
0.011103
0.0111015
0.0109294
0.0109086
0.0107059
0.0107384
0.0845477
0.0911142
0.0885472
0.0853457
0.0831543
0.0804766
0.0781183
0.0745435
0.0704203
0.0638914
0.0570438
0.0471453
0.0384368
0.0277307
0.0195102
0.0113056
0.00629969
0.00262201
0.00588796
0.0164871
0.0324028
0.0586563
0.116935
0.200678
0.278241
0.34508
0.398916
0.430633
0.441439
0.43877
0.428462
0.419439
0.40981
0.405541
0.397875
0.393023
0.383437
0.377366
0.36582
0.358255
0.344645
0.334722
0.320698
0.310101
0.295494
0.283666
0.267956
0.254299
0.235879
0.219023
0.199903
0.181157
0.159904
0.137207
0.113541
0.0901657
0.0648222
0.0388342
0.0194009
0.00948852
0.00487384
0.00231505
0.0011612
0.000705943
0.000560074
0.000423581
0.000264402
0.000174921
0.000139482
0.000130194
0.000130667
0.000136165
0.000146321
0.000158907
0.000172774
0.000187824
0.000205736
0.000226461
0.00025059
0.000277657
0.000307199
0.000339696
0.000375785
0.000415853
0.000460072
0.000508665
0.000562011
0.000620374
0.000684472
0.0007542
0.000830734
0.000914663
0.00100637
0.00110679
0.0012162
0.00133306
0.0014576
0.00159003
0.00173334
0.00188685
0.00204737
0.00221507
0.00239097
0.00257668
0.00277353
0.00298202
0.00320098
0.00342957
0.00366703
0.00391555
0.00417681
0.00445293
0.00474623
0.00505635
0.00538272
0.00572412
0.00607816
0.00644725
0.00683646
0.00724783
0.00767445
0.00811294
0.00856495
0.00903953
0.00953638
0.0100606
0.0106153
0.0112142
0.0118623
0.0125657
0.0133356
0.0142052
0.0152108
0.0162988
0.0173611
0.0183913
0.0194846
0.0205877
0.0213663
0.0220845
0.0231473
0.0244173
0.0255799
0.0267585
0.0279476
0.0291581
0.0304014
0.0316784
0.0329955
0.0343468
0.0357393
0.037166
0.0386378
0.0402148
0.0420509
0.0441318
0.046344
0.0484991
0.0504215
0.0521217
0.0537045
0.0551425
0.0564296
0.0575731
0.0585869
0.0594424
0.0601278
0.0606913
0.0611725
0.0615883
0.0619613
0.062345
0.0627783
0.063306
0.0639028
0.0646317
0.0654101
0.0663415
0.067119
0.0679721
0.0684206
0.069025
0.0691207
0.0694926
0.0691622
0.0693101
0.0685485
0.0685267
0.0674098
0.0672752
0.0659714
0.0661809
0.31821
0.341698
0.332315
0.320613
0.31259
0.302776
0.294131
0.281007
0.265853
0.241764
0.216416
0.17954
0.146918
0.10649
0.0752441
0.0438163
0.0244795
0.0102296
0.0229167
0.0636992
0.123549
0.218434
0.424879
0.714701
0.979053
1.20208
1.38032
1.48896
1.53137
1.52831
1.49904
1.47267
1.44341
1.43118
1.40778
1.39344
1.36325
1.34445
1.30722
1.28305
1.23848
1.20589
1.15909
1.12368
1.07426
1.0342
0.980323
0.933496
0.869763
0.810977
0.743602
0.677028
0.60093
0.519022
0.432447
0.345625
0.250288
0.150992
0.0756677
0.0369658
0.0189678
0.00900372
0.00450833
0.00273327
0.002166
0.00164258
0.00102756
0.000679977
0.000541818
0.000505356
0.000506964
0.000527821
0.0005667
0.000615175
0.000668733
0.000726917
0.000796075
0.00087614
0.000969282
0.00107391
0.00118825
0.00131408
0.00145385
0.00160906
0.0017804
0.00196872
0.00217554
0.00240183
0.00265043
0.00292091
0.00321769
0.00354315
0.00389866
0.00428787
0.00471191
0.00516495
0.00564769
0.00616087
0.00671598
0.00731058
0.00793251
0.00858209
0.00926331
0.00998229
0.0107441
0.0115509
0.0123981
0.0132825
0.0142012
0.0151625
0.0161728
0.0172403
0.0183738
0.0195722
0.0208332
0.0221525
0.0235208
0.0249471
0.0264506
0.0280399
0.0296887
0.0313842
0.0331322
0.0349675
0.0368893
0.0389172
0.0410623
0.043377
0.045881
0.048597
0.051566
0.054913
0.0587763
0.0629561
0.0670426
0.0709999
0.0751924
0.0794439
0.0824642
0.0852322
0.0892986
0.0941791
0.0986421
0.103169
0.107736
0.112385
0.11716
0.122066
0.127127
0.132321
0.137673
0.14316
0.148824
0.154893
0.161952
0.169949
0.178454
0.186756
0.194193
0.200804
0.206987
0.212629
0.217701
0.22222
0.226224
0.229586
0.232238
0.234308
0.235963
0.237256
0.238274
0.239243
0.240345
0.241784
0.243506
0.245772
0.248293
0.251449
0.254101
0.257088
0.258623
0.26077
0.261063
0.262396
0.261146
0.261674
0.258844
0.258757
0.254616
0.254117
0.249284
0.250061
0.817665
0.866857
0.845094
0.817936
0.799227
0.776261
0.756
0.72509
0.68924
0.631612
0.570261
0.479237
0.397068
0.292457
0.209473
0.123684
0.0696415
0.0292709
0.06519
0.178047
0.335057
0.560522
1.01674
1.61722
2.14616
2.57804
2.91983
3.13991
3.24398
3.2592
3.222
3.18594
3.14149
3.12676
3.09116
3.07181
3.02206
2.99283
2.92803
2.8873
2.807
2.74821
2.66041
2.59409
2.49865
2.42131
2.31419
2.22122
2.0921
1.97094
1.82877
1.68564
1.51867
1.33529
1.1346
0.924875
0.685474
0.423603
0.215465
0.105681
0.0542796
0.0258035
0.0129279
0.00783305
0.00620303
0.0047072
0.00294786
0.0019507
0.00155346
0.00144825
0.0014525
0.00151189
0.00162295
0.00176165
0.001915
0.00208158
0.00227948
0.00250858
0.00277507
0.00307448
0.00340176
0.00376189
0.00416188
0.00460599
0.00509624
0.00563502
0.00622666
0.00687388
0.00758482
0.00835824
0.00920662
0.0101368
0.0111525
0.0122641
0.0134748
0.014768
0.0161455
0.0176092
0.0191917
0.020886
0.0226575
0.0245068
0.0264452
0.0284898
0.0306547
0.0329458
0.0353502
0.0378587
0.0404628
0.0431854
0.0460447
0.049063
0.0522652
0.0556476
0.0592037
0.0629212
0.0667735
0.0707856
0.0750107
0.0794727
0.0840991
0.0888538
0.0937523
0.0988922
0.104271
0.109942
0.115936
0.122396
0.129374
0.136931
0.145173
0.154434
0.165077
0.176563
0.18779
0.198629
0.210065
0.221707
0.230047
0.237652
0.248662
0.261927
0.274027
0.286291
0.298646
0.311211
0.324104
0.337337
0.35098
0.364977
0.379385
0.394158
0.409407
0.425712
0.444588
0.465897
0.488545
0.510747
0.530843
0.548931
0.566007
0.581741
0.596015
0.608792
0.620069
0.629366
0.636346
0.641176
0.6442
0.645527
0.645487
0.644851
0.644333
0.644657
0.645891
0.648812
0.652788
0.658699
0.663782
0.669986
0.672963
0.677609
0.677967
0.680918
0.677762
0.678922
0.672044
0.671806
0.661792
0.660592
0.648913
0.650791
1.54336
1.61071
1.57577
1.53227
1.50212
1.46498
1.43219
1.38189
1.32331
1.22779
1.12463
0.967246
0.820861
0.625675
0.462869
0.283777
0.163651
0.0701265
0.153792
0.399694
0.702596
1.07029
1.76568
2.63925
3.39331
3.9968
4.47467
4.80027
4.97954
5.03155
5.00743
4.97907
4.93523
4.92855
4.89409
4.88066
4.82563
4.79715
4.72013
4.67483
4.57566
4.5037
4.39033
4.30564
4.17886
4.0771
3.93086
3.80547
3.62746
3.45811
3.25436
3.04605
2.79855
2.52274
2.20884
1.86246
1.44462
0.94598
0.503879
0.25162
0.13
0.0620864
0.031181
0.0188962
0.014955
0.0113571
0.00712277
0.00471477
0.00375291
0.00349724
0.00350662
0.00364918
0.0039165
0.00425083
0.00462061
0.00502221
0.00549907
0.00605093
0.00669276
0.00741377
0.0082018
0.00906866
0.0100311
0.0110993
0.0122779
0.0135726
0.0149936
0.0165472
0.0182527
0.020107
0.0221392
0.0243656
0.0267944
0.0294496
0.0323386
0.0354212
0.0387006
0.0421803
0.0459368
0.0499525
0.0541452
0.0585148
0.0630868
0.0678998
0.0729857
0.0783568
0.0839813
0.0898369
0.0959021
0.102228
0.108855
0.115832
0.123212
0.130987
0.139138
0.147635
0.156418
0.16554
0.175117
0.185202
0.195636
0.206337
0.217338
0.228855
0.240881
0.253531
0.266866
0.281187
0.296598
0.313208
0.331218
0.351307
0.374088
0.398563
0.422432
0.445315
0.469235
0.493745
0.511618
0.527779
0.550395
0.577833
0.602731
0.627908
0.653196
0.678845
0.705099
0.731998
0.759681
0.78805
0.817204
0.847116
0.877983
0.910784
0.948294
0.990292
1.03488
1.07905
1.11999
1.15783
1.19425
1.22848
1.2601
1.28867
1.31361
1.33327
1.34615
1.35191
1.351
1.344
1.33247
1.31889
1.30552
1.29427
1.28582
1.2818
1.28126
1.28548
1.2897
1.29691
1.29962
1.30578
1.30529
1.30946
1.30369
1.3053
1.29355
1.29306
1.27611
1.2741
1.25438
1.25754
2.32098
2.39438
2.34947
2.29396
2.25532
2.20762
2.16561
2.10092
2.02558
1.90135
1.76613
1.55516
1.35474
1.07613
0.832466
0.543543
0.329722
0.148646
0.314134
0.737929
1.18184
1.63663
2.47507
3.53022
4.43731
5.15878
5.73545
6.14939
6.4056
6.50242
6.50313
6.49228
6.45845
6.46481
6.43933
6.43773
6.38713
6.36649
6.28984
6.24932
6.14672
6.07372
5.95081
5.86101
5.7202
5.6095
5.44348
5.30456
5.10291
4.90978
4.67186
4.42732
4.13368
3.80635
3.42303
2.98144
2.42896
1.71717
0.995264
0.522542
0.27531
0.133218
0.0673764
0.0409167
0.0323774
0.0246237
0.0154835
0.0102595
0.00816487
0.00760545
0.0076236
0.00793116
0.00850942
0.00923369
0.010035
0.0109048
0.0119367
0.01313
0.0145169
0.0160739
0.0177745
0.0196434
0.0217161
0.0240137
0.0265456
0.0293227
0.032366
0.0356874
0.0393269
0.043276
0.047594
0.0523129
0.0574471
0.0630428
0.0691127
0.0755689
0.0824134
0.0896481
0.0974264
0.105707
0.114318
0.123252
0.132556
0.142301
0.152546
0.163307
0.174517
0.186125
0.198083
0.210483
0.223397
0.236907
0.251109
0.265977
0.28147
0.297528
0.314033
0.331075
0.348861
0.367488
0.386672
0.406271
0.426339
0.447257
0.469019
0.49181
0.515731
0.541258
0.568551
0.597732
0.629073
0.663659
0.701833
0.74276
0.78251
0.820255
0.859182
0.899436
0.929619
0.956816
0.992828
1.0369
1.07669
1.11683
1.15702
1.19769
1.23922
1.28172
1.32539
1.37012
1.41609
1.46334
1.51212
1.56352
1.62134
1.68544
1.75357
1.8222
1.88789
1.95064
2.01234
2.07153
2.12721
2.17781
2.22123
2.25329
2.27006
2.26993
2.25374
2.22392
2.18501
2.14273
2.10185
2.06577
2.03607
2.01517
2.00198
1.99773
1.99597
2.00008
1.99997
2.00548
2.0031
2.00735
1.99899
2.00057
1.98469
1.9839
1.96125
1.95861
1.93235
1.93655
3.02473
3.09534
3.04371
2.98075
2.93676
2.88241
2.83479
2.76132
2.67608
2.53434
2.37976
2.13455
1.89941
1.56265
1.25958
0.878737
0.570209
0.281772
0.555336
1.14287
1.68521
2.1671
3.03517
4.18569
5.18013
5.97655
6.62417
7.11311
7.45
7.59906
7.63347
7.64672
7.62872
7.65007
7.63786
7.65099
7.61099
7.60225
7.53275
7.50165
7.40462
7.33768
7.21507
7.12841
6.98468
6.87533
6.70262
6.56324
6.35592
6.15735
5.90617
5.64937
5.3385
4.99595
4.58597
4.09634
3.47204
2.62399
1.6639
0.948465
0.522
0.260528
0.134123
0.0820201
0.0649877
0.0495913
0.0313451
0.0208242
0.0165801
0.0154387
0.0154695
0.0160856
0.0172473
0.0187044
0.0203165
0.022064
0.0241331
0.0265217
0.0292928
0.0323972
0.035781
0.03949
0.0435914
0.0481228
0.0530991
0.0585358
0.0644692
0.0709151
0.0779447
0.0855328
0.0937826
0.102744
0.112431
0.122915
0.134207
0.14613
0.158673
0.171822
0.185841
0.20064
0.215901
0.231598
0.2478
0.264617
0.282132
0.300364
0.319184
0.338501
0.358229
0.378504
0.399431
0.421128
0.443733
0.467199
0.491453
0.516406
0.541881
0.568007
0.595089
0.623274
0.652166
0.681573
0.711584
0.742737
0.775047
0.808757
0.844008
0.881405
0.921144
0.963312
1.0082
1.05729
1.10954
1.16589
1.2204
1.27183
1.32418
1.37882
1.42118
1.45972
1.50773
1.56677
1.62005
1.67379
1.72758
1.78199
1.83758
1.89448
1.95297
2.01299
2.07484
2.13863
2.20458
2.27366
2.35025
2.43455
2.52443
2.61641
2.70682
2.79527
2.88334
2.96862
3.04928
3.12231
3.18362
3.22624
3.24363
3.23291
3.19541
3.13558
3.06118
2.98128
2.90352
2.83311
2.77303
2.72676
2.6935
2.67427
2.66148
2.65851
2.65361
2.65657
2.65149
2.65481
2.64406
2.64522
2.62622
2.62517
2.59843
2.59543
2.56461
2.56952
3.61228
3.67405
3.61783
3.55062
3.5035
3.44529
3.39468
3.31652
3.22645
3.07561
2.91143
2.64727
2.39389
2.02265
1.68412
1.24056
0.856767
0.471915
0.849576
1.55582
2.16113
2.643
3.40981
4.59871
5.62731
6.46759
7.16788
7.72146
8.14251
8.35006
8.42461
8.46624
8.46735
8.5039
8.50647
8.53498
8.5085
8.51315
8.45482
8.4354
8.34965
8.29327
8.17753
8.09939
7.96032
7.85947
7.68948
7.55874
7.35942
7.17031
6.92295
6.67056
6.36165
6.02914
5.62468
5.12388
4.47912
3.56877
2.42839
1.49924
0.878857
0.462741
0.246857
0.15355
0.122261
0.0940138
0.0600612
0.0401476
0.0320263
0.0298168
0.0298581
0.0310173
0.0332116
0.0359672
0.039012
0.0423011
0.0461795
0.050638
0.0557874
0.0615273
0.0677496
0.0745274
0.0819708
0.0901333
0.0990262
0.108659
0.119078
0.13029
0.142398
0.155334
0.169248
0.184197
0.200176
0.217267
0.235464
0.254461
0.274216
0.294684
0.316258
0.338774
0.361751
0.385135
0.409021
0.433559
0.458852
0.484925
0.511593
0.538727
0.566212
0.594225
0.622909
0.652415
0.682917
0.714361
0.746656
0.779699
0.813285
0.847579
0.882973
0.919652
0.957172
0.995314
1.03422
1.07454
1.11634
1.15989
1.20539
1.2535
1.30445
1.35828
1.41527
1.47717
1.54085
1.61034
1.67731
1.74046
1.8041
1.87092
1.92437
1.97396
2.03286
2.1049
2.17025
2.23623
2.30241
2.36945
2.43803
2.50836
2.58077
2.65529
2.73233
2.81206
2.89459
2.98068
3.07515
3.1785
3.28884
3.40289
3.51677
3.62953
3.7421
3.85108
3.95371
4.04567
4.12131
4.17151
4.18787
4.16651
4.10866
4.01961
3.90897
3.78835
3.66809
3.55558
3.45602
3.37475
3.31227
3.26973
3.2392
3.22405
3.21208
3.2106
3.20186
3.20325
3.19014
3.19049
3.16908
3.16779
3.1381
3.13495
3.101
3.10637
4.07928
4.1271
4.06757
3.9984
3.9497
3.88958
3.83789
3.75805
3.66702
3.51357
3.34759
3.07715
2.81816
2.42963
2.07438
1.59399
1.15632
0.699244
1.15768
1.95113
2.60083
3.0822
3.6512
4.81816
5.83122
6.68889
7.42812
8.03724
8.54451
8.81662
8.93735
9.01133
9.03441
9.08621
9.10409
9.14777
9.1362
9.15457
9.10953
9.10245
9.03105
8.98767
8.88259
8.81599
8.6859
8.59772
8.4361
8.31899
8.13569
7.96586
7.73368
7.49887
7.20603
6.90342
6.52949
6.04549
5.41747
4.50944
3.23944
2.11644
1.31662
0.739116
0.414973
0.266099
0.214176
0.167209
0.109074
0.0738733
0.0592247
0.0551548
0.0551712
0.0571983
0.0610664
0.0659233
0.0712711
0.0770012
0.083701
0.0913369
0.100079
0.109725
0.120067
0.131199
0.143273
0.156343
0.170395
0.185408
0.201429
0.218431
0.236546
0.255643
0.275915
0.297418
0.32012
0.344107
0.369349
0.395415
0.422241
0.449759
0.478482
0.508175
0.538237
0.568595
0.599369
0.630748
0.662854
0.695723
0.729137
0.762942
0.79702
0.831575
0.866787
0.902836
0.939916
0.977991
1.01696
1.05673
1.09711
1.13828
1.18071
1.2246
1.26951
1.3152
1.36191
1.41033
1.46059
1.51298
1.56777
1.62565
1.68687
1.75146
1.81974
1.89295
1.96725
2.04882
2.12712
2.20122
2.27549
2.35335
2.41721
2.47791
2.548
2.63224
2.70935
2.78727
2.86563
2.9451
3.02649
3.11013
3.19631
3.28527
3.37742
3.47296
3.57188
3.67474
3.78672
3.90851
4.03844
4.17332
4.30901
4.44397
4.57837
4.70783
4.82881
4.936
5.02266
5.07827
5.09324
5.0628
4.98755
4.87246
4.7277
4.56633
4.40087
4.24079
4.09385
3.96789
3.86579
3.78954
3.73204
3.69704
3.67173
3.66144
3.64651
3.64403
3.6278
3.6266
3.60296
3.60134
3.56929
3.56617
3.52994
3.53561
4.44149
4.47169
4.4095
4.33973
4.29038
4.22953
4.17794
4.09831
4.0088
3.85701
3.69434
3.42626
3.17136
2.78018
2.4216
1.92477
1.45019
0.941332
1.46034
2.32587
3.01291
3.49925
3.85455
4.91226
5.85616
6.70188
7.46577
8.12065
8.7129
9.05544
9.22925
9.34051
9.38935
9.45727
9.49118
9.54984
9.55424
9.58643
9.55608
9.5614
9.50604
9.47711
9.38512
9.33179
9.21324
9.14006
8.99023
8.88917
8.72582
8.58133
8.37118
8.16281
7.89408
7.63273
7.30865
6.86698
6.28172
5.43257
4.08549
2.77303
1.79682
1.06834
0.631753
0.420609
0.343806
0.274618
0.185355
0.128601
0.104181
0.0971314
0.0969681
0.10014
0.106321
0.114055
0.122525
0.131468
0.141785
0.153392
0.166518
0.180793
0.195866
0.211844
0.228915
0.247121
0.266416
0.286748
0.308166
0.330612
0.354259
0.378925
0.404862
0.432127
0.460684
0.490619
0.521881
0.55396
0.586787
0.620294
0.655058
0.690793
0.726839
0.76311
0.79973
0.836926
0.874821
0.913462
0.952626
0.992133
1.03189
1.07209
1.11297
1.15471
1.19752
1.2414
1.28626
1.33199
1.37848
1.42587
1.47474
1.52524
1.57704
1.6298
1.68389
1.74001
1.7984
1.85931
1.92315
1.99057
2.06191
2.1372
2.21664
2.30053
2.3864
2.47998
2.56955
2.65472
2.73993
2.82833
2.90244
2.97454
3.05684
3.15318
3.2423
3.33235
3.42303
3.51509
3.60945
3.70649
3.80655
3.91002
4.01728
4.12851
4.2436
4.36294
4.49202
4.63167
4.7803
4.93475
5.09057
5.24565
5.39943
5.54666
5.68314
5.80287
5.89838
5.95818
5.97182
5.93375
5.84366
5.70555
5.52932
5.32866
5.11758
4.90726
4.70792
4.52998
4.37923
4.25907
4.1644
4.09892
4.05079
4.02478
3.9992
3.98977
3.96885
3.96489
3.9387
3.93648
3.90219
3.89923
3.86105
3.86692
4.71989
4.73051
4.66612
4.59654
4.54706
4.48617
4.43541
4.35715
4.27071
4.12331
3.9672
3.70715
3.46284
3.07932
2.72868
2.23144
1.73274
1.18736
1.7549
2.68455
3.40745
3.9039
4.09364
4.94889
5.76857
6.56396
7.33323
8.02081
8.68985
9.10712
9.34186
9.49681
9.57678
9.66303
9.71449
9.78836
9.81007
9.8563
9.84216
9.8599
9.82188
9.80847
9.73159
9.69281
9.58763
9.53088
9.39525
9.31143
9.16947
9.05395
8.86979
8.69387
8.45326
8.23823
7.97409
7.59705
7.0733
6.33444
4.96888
3.47308
2.3025
1.42739
0.880618
0.605917
0.502288
0.411083
0.289405
0.207813
0.171197
0.159973
0.159207
0.163421
0.172064
0.18279
0.194507
0.206666
0.220509
0.235888
0.253112
0.271592
0.29085
0.311019
0.332326
0.354815
0.378422
0.403087
0.428871
0.455715
0.483828
0.513018
0.543595
0.575615
0.609059
0.643998
0.680354
0.717583
0.755611
0.79439
0.83449
0.87558
0.917006
0.958653
1.00063
1.04319
1.08644
1.13043
1.17496
1.21982
1.26495
1.31053
1.35684
1.40407
1.45241
1.50193
1.55253
1.6041
1.65661
1.71016
1.76542
1.82252
1.88119
1.94103
2.00259
2.06647
2.1331
2.20268
2.27576
2.35296
2.43472
2.52103
2.6118
2.7069
2.80562
2.91154
3.01269
3.10938
3.20608
3.30467
3.38922
3.47307
3.56866
3.67718
3.77867
3.8811
3.98425
4.0891
4.19659
4.30708
4.4211
4.53907
4.66134
4.78807
4.91901
5.05445
5.20016
5.35705
5.52357
5.69646
5.87096
6.04448
6.21575
6.37878
6.52884
6.6594
6.76249
6.82583
6.83829
6.79359
6.6904
6.53154
6.32616
6.08805
5.83219
5.57103
5.31695
5.08275
4.87717
4.70517
4.5643
4.45902
4.37766
4.32675
4.28387
4.26253
4.234
4.22531
4.19567
4.19221
4.15542
4.15265
4.11248
4.11852
4.93206
4.92394
4.85802
4.78899
4.73977
4.67927
4.62983
4.55371
4.47138
4.33029
4.18283
3.93478
3.70532
3.33657
3.00247
2.51794
2.00518
1.43528
2.04488
3.03273
3.79181
4.30225
4.39193
4.98554
5.63787
6.33196
7.07894
7.78163
8.50661
8.99767
9.30101
9.50727
9.62549
9.73387
9.80561
9.89552
9.93643
9.99727
10.0012
10.0317
10.0122
10.0153
9.95557
9.93242
9.84239
9.80296
9.68357
9.6177
9.49713
9.41255
9.25636
9.1173
8.90673
8.73969
8.53743
8.24235
7.78836
7.20907
5.89274
4.23232
2.839
1.80552
1.14894
0.80897
0.676231
0.563978
0.413003
0.307516
0.258359
0.242142
0.240111
0.244784
0.255312
0.268268
0.282463
0.297078
0.3136
0.33182
0.35218
0.373841
0.39627
0.419631
0.444191
0.470004
0.496999
0.525127
0.554451
0.584942
0.616811
0.649902
0.684555
0.720828
0.758725
0.798287
0.839382
0.881474
0.924479
0.968374
1.01367
1.05998
1.10672
1.15371
1.20106
1.24901
1.29767
1.34707
1.39703
1.44733
1.49794
1.54904
1.60094
1.65384
1.70793
1.76332
1.81986
1.87751
1.93624
1.99619
2.05805
2.12196
2.18768
2.25482
2.32408
2.396
2.47117
2.54977
2.63248
2.7199
2.81257
2.91034
3.013
3.12045
3.23301
3.35164
3.46477
3.57342
3.68206
3.79062
3.88595
3.98201
4.09174
4.21258
4.32676
4.44171
4.55752
4.67533
4.79598
4.92001
5.04802
5.18042
5.31757
5.45957
5.60603
5.7572
5.91912
6.09272
6.27643
6.46687
6.65896
6.84966
7.0371
7.21464
7.37708
7.51748
7.62743
7.69398
7.70538
7.65465
7.53947
7.36137
7.1286
6.85471
6.55527
6.24371
5.93424
5.64176
5.37783
5.14878
4.95498
4.80213
4.67991
4.59457
4.52615
4.48618
4.44527
4.42857
4.3937
4.38774
4.34783
4.34512
4.30262
4.30882
5.09085
5.06802
5.00148
4.93318
4.88449
4.82472
4.77696
4.70357
4.62608
4.49278
4.35539
4.12234
3.91067
3.56188
3.25035
2.78949
2.27117
1.68691
2.33528
3.37546
4.1709
4.69766
4.73743
5.0712
5.5255
6.06652
6.75162
7.44375
8.1888
8.74497
9.12198
9.38676
9.55146
9.68728
9.7835
9.89105
9.95374
10.0301
10.0545
10.0982
10.0989
10.1191
10.0789
10.0724
9.99957
9.97795
9.87686
9.82949
9.72963
9.6766
9.54901
9.44998
9.27034
9.15156
9.00677
8.80667
8.42209
8.03599
6.85617
5.06796
3.42523
2.20397
1.43162
1.02227
0.856865
0.723062
0.546229
0.419259
0.358452
0.336886
0.333023
0.337515
0.349106
0.363337
0.379008
0.395236
0.413643
0.433865
0.456565
0.480616
0.505523
0.531453
0.558713
0.587356
0.617304
0.648533
0.681082
0.714983
0.750403
0.787268
0.825915
0.866405
0.908756
0.952981
0.998887
1.04596
1.09409
1.14329
1.19398
1.24571
1.298
1.35055
1.40355
1.45719
1.51158
1.56671
1.62241
1.67848
1.73488
1.79184
1.84969
1.90862
1.96885
2.03046
2.09331
2.15738
2.22265
2.28933
2.35811
2.42913
2.50217
2.57693
2.65416
2.7345
2.81858
2.90665
2.99946
3.09766
3.2018
3.31169
3.42709
3.54803
3.67512
3.80679
3.93231
4.05336
4.17415
4.29268
4.39917
4.50808
4.63251
4.76584
4.89296
5.02057
5.14924
5.28013
5.41399
5.55163
5.69363
5.84042
5.99234
6.1494
6.31111
6.47771
6.65553
6.84545
7.04589
7.25326
7.46215
7.66918
7.87196
8.06322
8.23734
8.38704
8.5035
8.57309
8.58349
8.52706
8.40048
8.20408
7.9451
7.6367
7.29483
6.93361
6.56889
6.21744
5.89335
5.60418
5.35301
5.14673
4.97721
4.85063
4.74876
4.68245
4.62304
4.59344
4.55027
4.53957
4.49544
4.49233
4.44688
4.45319
5.2077
5.17467
5.10857
5.04113
4.99323
4.93445
4.88871
4.81852
4.74641
4.6221
4.49577
4.28014
4.08829
3.76362
3.47881
3.05083
2.53472
1.94528
2.63115
3.71705
4.54805
5.09185
5.11011
5.22989
5.47661
5.8292
6.40544
7.04831
7.76358
8.36384
8.81367
9.14218
9.36218
9.53184
9.65806
9.78543
9.87308
9.96591
10.0138
10.0715
10.0943
10.1321
10.1142
10.1249
10.072
10.0683
9.98783
9.95941
9.87968
9.85754
9.7583
9.70108
9.55292
9.4824
9.38636
9.28933
8.97008
8.78649
7.84678
5.99647
4.08604
2.63255
1.72936
1.24358
1.04089
0.883994
0.68354
0.536811
0.465098
0.438015
0.432006
0.435934
0.447974
0.462845
0.479344
0.496655
0.516512
0.538348
0.562996
0.589104
0.616224
0.644521
0.674336
0.705715
0.738567
0.772893
0.8087
0.846086
0.885163
0.92595
0.968764
1.01369
1.06071
1.10984
1.16085
1.2132
1.26678
1.32165
1.37806
1.43562
1.49382
1.55233
1.6114
1.67115
1.7317
1.79301
1.85489
1.91713
1.97975
2.04301
2.10724
2.17265
2.23947
2.30772
2.37727
2.44815
2.52033
2.59412
2.67017
2.74866
2.82934
2.91205
2.99761
3.08677
3.1802
3.27825
3.38173
3.49133
3.60763
3.7304
3.85946
3.99489
4.13703
4.28206
4.42038
4.55427
4.68729
4.81596
4.93403
5.05658
5.19601
5.34206
5.48227
5.62277
5.76449
5.90852
6.05574
6.20706
6.3631
6.52427
6.6909
6.86288
7.03967
7.22153
7.41505
7.62109
7.83796
8.06187
8.28708
8.50993
8.72756
8.93212
9.11758
9.27635
9.39916
9.47172
9.48114
9.41912
9.28142
9.06717
8.78267
8.44061
8.05716
7.64701
7.2274
6.81684
6.43177
6.08075
5.76936
5.50563
5.28374
5.1101
4.96868
4.86938
4.78466
4.73622
4.68048
4.66147
4.61127
4.60669
4.55733
4.56359
5.29365
5.25256
5.18787
5.1215
5.07464
5.01714
4.97368
4.9071
4.84078
4.72653
4.61192
4.41572
4.24507
3.94805
3.69265
3.3055
2.7993
2.21362
2.93734
4.06129
4.92566
5.48555
5.49815
5.45163
5.51261
5.6691
6.09598
6.64029
7.27066
7.87635
8.38538
8.77638
9.05884
9.26889
9.43192
9.58205
9.69871
9.80943
9.88412
9.95688
10.0041
10.0592
10.0667
10.0948
10.0653
10.0789
10.022
10.0126
9.95338
9.96005
9.88884
9.87324
9.75737
9.73502
9.67787
9.68467
9.42899
9.42938
8.82607
7.02487
4.8525
3.10849
2.04733
1.47427
1.22843
1.0465
0.823619
0.657946
0.575537
0.542773
0.534451
0.537657
0.549785
0.564946
0.581978
0.600184
0.621299
0.644733
0.6712
0.699341
0.728643
0.759339
0.791778
0.825994
0.861893
0.899471
0.938738
0.979807
1.0228
1.06778
1.11505
1.16473
1.21675
1.27114
1.32762
1.38566
1.44511
1.50606
1.56864
1.6325
1.69706
1.762
1.82762
1.89399
1.96122
2.0292
2.09774
2.16665
2.23597
2.306
2.37713
2.44951
2.52338
2.59872
2.67541
2.75349
2.83299
2.91429
2.99802
3.08436
3.17303
3.26408
3.35839
3.45686
3.56014
3.66873
3.78348
3.90518
4.03437
4.17084
4.31447
4.46527
4.62287
4.78158
4.93311
5.08027
5.22556
5.36475
5.49487
5.63187
5.78644
5.94545
6.09892
6.25257
6.40752
6.56482
6.72555
6.89067
7.06083
7.23643
7.41776
7.60464
7.79641
7.99346
8.20265
8.42476
8.65797
8.89825
9.13952
9.37794
9.61021
9.82791
10.0246
10.1924
10.3216
10.3971
10.4055
10.3378
10.189
9.95705
9.6473
9.27203
8.84751
8.38889
7.91472
7.44508
6.99859
6.5847
6.2113
5.88737
5.6094
5.38397
5.19765
5.05956
4.94406
4.87042
4.79702
4.76522
4.70609
4.69797
4.64329
4.6491
5.35531
5.30792
5.24538
5.18037
5.13486
5.07891
5.03798
4.97541
4.91519
4.81185
4.70945
4.53431
4.38566
4.1194
3.89498
3.55574
3.06749
2.49501
3.25857
4.41169
5.30557
5.87885
5.89357
5.72111
5.62455
5.61325
5.86374
6.26913
6.77021
7.32513
7.85793
8.29632
8.64151
8.89586
9.10256
9.27864
9.42906
9.55928
9.66474
9.75365
9.8283
9.90013
9.93665
9.9814
9.97952
10.009
9.97927
9.98807
9.95153
9.98309
9.94063
9.96346
9.88207
9.90631
9.88167
9.98223
9.79712
9.93587
9.73476
8.14406
5.7581
3.65849
2.3961
1.71862
1.42173
1.2124
0.967475
0.782989
0.68955
0.650958
0.640179
0.642605
0.654607
0.669865
0.687306
0.70639
0.728752
0.753908
0.782211
0.812475
0.844047
0.877275
0.912499
0.949739
0.988904
1.02996
1.07296
1.11798
1.1652
1.21468
1.26676
1.32157
1.379
1.43905
1.50144
1.5656
1.63139
1.69893
1.76817
1.83885
1.91026
1.98218
2.0549
2.12844
2.2029
2.27811
2.35384
2.42994
2.5065
2.58386
2.66239
2.74226
2.82369
2.90659
2.99087
3.0766
3.16386
3.2531
3.34495
3.43954
3.53664
3.63647
3.74002
3.8483
3.96199
4.08175
4.20846
4.34299
4.48585
4.63684
4.79588
4.96281
5.13616
5.30891
5.47407
5.63487
5.79258
5.94281
6.08552
6.2377
6.40745
6.57971
6.74664
6.91371
7.08209
7.25284
7.42726
7.60636
7.79078
7.98091
8.17702
8.37883
8.58561
8.79793
9.02287
9.26114
9.51077
9.76742
10.0247
10.2786
10.5255
10.7564
10.9645
11.1413
11.2769
11.3554
11.3627
11.2893
11.1292
10.8793
10.5443
10.1358
9.67041
9.16351
8.63489
8.10614
7.5979
7.12044
6.68377
6.29769
5.96091
5.68006
5.44436
5.26227
5.11066
5.00657
4.91038
4.86066
4.78915
4.7742
4.71221
4.71668
5.39728
5.34488
5.28517
5.22194
5.17809
5.12398
5.08585
5.02764
4.97374
4.88202
4.79217
4.63928
4.51295
4.28019
4.08764
3.80255
3.34087
2.79217
3.5994
4.77159
5.68918
6.2713
6.29077
6.02472
5.79698
5.65332
5.73162
5.97613
6.3281
6.77784
7.27646
7.72567
8.11852
8.41305
8.66669
8.87048
9.05894
9.21003
9.35028
9.45649
9.56238
9.64978
9.71945
9.77923
9.81025
9.85301
9.8554
9.87975