/*--------------------------------*- C++ -*----------------------------------*\
| =========                 |                                                 |
| \\      /  F ield         | OpenFOAM: The Open Source CFD Toolbox           |
|  \\    /   O peration     | Version:  2212                                  |
|   \\  /    A nd           | Website:  www.openfoam.com                      |
|    \\/     M anipulation  |                                                 |
\*---------------------------------------------------------------------------*/
FoamFile
{
    version     2.0;
    format      ascii;
    arch        "LSB;label=32;scalar=64";
    class       volSymmTensorField;
    location    "5000";
    object      nonlinearR;
}
// * * * * * * * * * * * * * * * * * * * * * * * * * * * * * * * * * * * * * //

dimensions      [0 2 -2 0 0 0 0];

internalField   nonuniform List<symmTensor> 
10368
(
(3.84961e-07 -3.45944e-11 6.08948e-33 -3.84967e-07 1.24463e-33 5.40332e-12)
(4.04702e-07 -5.10469e-11 1.80106e-32 -4.04708e-07 3.8869e-33 5.6804e-12)
(3.87333e-07 -4.45001e-11 -2.41699e-32 -3.87338e-07 -5.14417e-33 5.4366e-12)
(3.64872e-07 -3.77985e-11 1.41553e-31 -3.64878e-07 -7.33176e-36 5.12135e-12)
(3.49912e-07 -3.38095e-11 -1.47349e-31 -3.49917e-07 7.11626e-36 4.91137e-12)
(3.31494e-07 -2.95208e-11 5.31914e-31 -3.31499e-07 4.30497e-32 4.65285e-12)
(3.14432e-07 -2.6867e-11 -1.17996e-30 -3.14436e-07 -9.17127e-32 4.41336e-12)
(2.88817e-07 -2.36576e-11 1.08289e-30 -2.88821e-07 4.84797e-32 4.05384e-12)
(2.58403e-07 -2.23992e-11 -4.60625e-31 -2.58406e-07 1.9966e-35 3.62694e-12)
(2.13895e-07 -2.02848e-11 0 -2.13898e-07 0 3.00223e-12)
(1.68757e-07 -2.06614e-11 -1.74948e-34 -1.68759e-07 2.44739e-38 2.36867e-12)
(1.13299e-07 -1.91169e-11 -1.51858e-30 -1.133e-07 -3.35071e-32 1.59026e-12)
(7.07139e-08 -1.82145e-11 6.49079e-31 -7.07149e-08 4.08331e-33 9.9254e-13)
(3.25514e-08 -1.32298e-11 -3.50132e-31 -3.25518e-08 1.6469e-32 4.5689e-13)
(1.23006e-08 -7.83013e-12 4.56946e-31 -1.23008e-08 -1.45429e-34 1.72652e-13)
(2.12219e-09 -2.51309e-12 -2.03104e-31 -2.12222e-09 1.20287e-34 2.97871e-14)
(4.25882e-10 -4.63412e-13 2.83951e-31 -4.25888e-10 -5.92402e-33 5.97768e-15)
(1.38957e-14 -4.64033e-16 6.72844e-33 -1.38959e-14 -1.11351e-34 1.95191e-19)
(2.54993e-13 1.04413e-13 -8.22115e-29 -2.54997e-13 -1.61772e-29 3.85813e-18)
(1.93182e-09 1.79376e-09 -1.26727e-25 -1.93186e-09 -4.65506e-26 3.70103e-14)
(3.73298e-08 6.04071e-08 2.42954e-24 -3.73308e-08 1.35462e-24 9.96824e-13)
(3.01142e-07 6.39427e-07 3.19203e-24 -3.01151e-07 2.02499e-24 9.92056e-12)
(1.16578e-06 2.3228e-06 1.16444e-23 -1.16582e-06 7.18445e-24 3.64762e-11)
(2.64784e-06 3.79632e-06 1.16662e-29 -2.64791e-06 6.08659e-30 6.49598e-11)
(3.71849e-06 4.02503e-06 6.81743e-27 -3.71857e-06 2.99761e-27 7.69087e-11)
(4.70636e-06 4.31564e-06 -1.87143e-23 -4.70645e-06 -5.73744e-25 8.96219e-11)
(5.5805e-06 4.29832e-06 -2.48581e-27 -5.5806e-06 -8.69672e-28 9.88637e-11)
(5.66853e-06 3.59029e-06 2.81506e-23 -5.66862e-06 8.16486e-24 9.41749e-11)
(5.26321e-06 2.79687e-06 2.83729e-23 -5.2633e-06 7.07046e-24 8.36537e-11)
(4.91124e-06 2.24005e-06 2.93084e-27 -4.91132e-06 6.28401e-28 7.57634e-11)
(4.56847e-06 1.81953e-06 1.44005e-23 -4.56854e-06 2.91125e-25 6.90198e-11)
(4.33541e-06 1.5217e-06 1.3598e-23 -4.33548e-06 2.31709e-24 6.44898e-11)
(4.14729e-06 1.29248e-06 4.25377e-27 -4.14735e-06 6.45656e-28 6.09713e-11)
(4.06337e-06 1.1176e-06 9.28635e-33 -4.06343e-06 1.2462e-33 5.91502e-11)
(3.89652e-06 9.34193e-07 -6.2177e-27 -3.89658e-06 -7.30247e-28 5.62403e-11)
(3.7705e-06 7.76349e-07 -7.55379e-24 -3.77056e-06 3.1342e-25 5.40318e-11)
(3.56913e-06 6.19384e-07 5.07062e-27 -3.56918e-06 4.35733e-28 5.0844e-11)
(3.43202e-06 4.88956e-07 3.71274e-24 -3.43207e-06 7.90331e-25 4.86572e-11)
(3.21144e-06 3.60211e-07 2.23326e-27 -3.21148e-06 1.23757e-28 4.53574e-11)
(3.05507e-06 2.52481e-07 5.72397e-24 -3.05511e-06 4.92296e-25 4.30261e-11)
(2.79565e-06 1.47469e-07 -9.35892e-25 -2.79569e-06 -2.46646e-26 3.92934e-11)
(2.615e-06 6.57481e-08 -5.97934e-28 -2.61503e-06 -1.09266e-29 3.67148e-11)
(2.38686e-06 -5.79344e-09 2.87939e-26 -2.38689e-06 3.65809e-27 3.35012e-11)
(2.20933e-06 -6.54161e-08 1.38685e-24 -2.20936e-06 -2.05274e-26 3.10229e-11)
(1.98656e-06 -1.12042e-07 9.04667e-25 -1.98659e-06 -2.54912e-26 2.79269e-11)
(1.79715e-06 -1.51533e-07 -4.35083e-28 -1.79718e-06 1.84682e-29 2.53136e-11)
(1.57905e-06 -1.75314e-07 2.54541e-24 -1.57907e-06 -1.40868e-25 2.2299e-11)
(1.37165e-06 -1.93642e-07 8.09055e-25 -1.37167e-06 3.97594e-26 1.94427e-11)
(1.11198e-06 -1.90732e-07 -3.63489e-24 -1.112e-06 3.09474e-25 1.58351e-11)
(9.0134e-07 -1.8128e-07 -6.48484e-25 -9.01353e-07 6.45656e-26 1.2904e-11)
(6.97521e-07 -1.61217e-07 3.39671e-24 -6.97531e-07 -3.24295e-25 1.0048e-11)
(5.22001e-07 -1.36687e-07 -4.80404e-25 -5.22009e-07 1.01876e-26 7.57343e-12)
(3.4893e-07 -1.0363e-07 -1.22264e-27 -3.48935e-07 1.7814e-28 5.10869e-12)
(1.92834e-07 -6.50502e-08 -4.88301e-25 -1.92836e-07 8.01424e-26 2.85626e-12)
(8.68867e-08 -3.27135e-08 2.66193e-28 -8.68881e-08 -4.8512e-29 1.30302e-12)
(3.31872e-08 -1.37057e-08 -2.0511e-25 -3.31877e-08 4.06866e-26 5.03932e-13)
(6.03976e-09 -2.86437e-09 -5.87711e-26 -6.03985e-09 1.32299e-26 9.38127e-14)
(7.46826e-11 -4.32299e-11 -2.06935e-30 -7.46839e-11 5.56818e-31 1.21098e-15)
(5.05233e-11 -3.74156e-11 1.34271e-27 -5.05242e-11 -4.43044e-28 8.82195e-16)
(2.18161e-10 -2.10403e-10 3.35759e-27 -2.18165e-10 -1.35528e-27 4.25259e-15)
(1.03837e-10 -1.36291e-10 -9.62899e-28 -1.0384e-10 5.08415e-28 2.4038e-15)
(3.63788e-11 -6.69221e-11 -1.41581e-27 -3.63799e-11 8.4184e-28 1.0687e-15)
(1.42991e-11 -3.50885e-11 1.44231e-30 -1.42996e-11 -9.70371e-31 5.31673e-16)
(7.25802e-12 -2.30504e-11 -1.71757e-28 -7.25835e-12 1.30924e-28 3.39126e-16)
(4.08125e-12 -1.63433e-11 1.22863e-28 -4.08149e-12 -9.94742e-29 2.36406e-16)
(1.0829e-12 -5.26258e-12 -2.58057e-28 -1.08298e-12 2.10361e-28 7.54048e-17)
(2.27022e-13 -1.26813e-12 -1.73364e-29 -2.2704e-13 1.4785e-29 1.8081e-17)
(7.74925e-14 -4.71955e-13 -1.11665e-31 -7.74992e-14 9.48359e-32 6.71275e-18)
(4.96827e-14 -3.18887e-13 6.18831e-30 -4.96872e-14 -5.29879e-30 4.52983e-18)
(5.2225e-14 -3.2289e-13 -1.26476e-29 -5.22296e-14 1.07662e-29 4.59108e-18)
(6.49097e-14 -3.63949e-13 9.32879e-32 -6.49149e-14 -7.81225e-32 5.18915e-18)
(9.75719e-14 -5.15555e-13 1.89555e-29 -9.75793e-14 -1.57045e-29 7.36489e-18)
(1.47214e-13 -7.59594e-13 6.40635e-29 -1.47225e-13 -5.28392e-29 1.08602e-17)
(2.07267e-13 -1.02454e-12 -4.92053e-29 -2.07282e-13 4.02474e-29 1.46721e-17)
(2.85689e-13 -1.30591e-12 1.28284e-31 -2.85707e-13 -1.03248e-31 1.87642e-17)
(3.95341e-13 -1.62019e-12 4.88433e-29 -3.95364e-13 -3.83579e-29 2.34098e-17)
(5.7191e-13 -2.08137e-12 -3.63704e-31 -5.71941e-13 2.77224e-31 3.02991e-17)
(8.06404e-13 -2.64773e-12 -1.9063e-28 -8.06443e-13 1.41215e-28 3.88518e-17)
(1.15303e-12 -3.45409e-12 -4.77635e-29 -1.15308e-12 3.36731e-29 5.11152e-17)
(1.58595e-12 -4.37186e-12 6.29439e-31 -1.58602e-12 -4.41193e-31 6.52814e-17)
(2.12481e-12 -5.34909e-12 2.14796e-28 -2.12489e-12 -1.46939e-28 8.07935e-17)
(2.81658e-12 -6.46834e-12 1.71498e-28 -2.81668e-12 -1.12374e-28 9.90332e-17)
(3.70982e-12 -7.77146e-12 5.07709e-31 -3.70994e-12 -3.20141e-31 1.20884e-16)
(4.85629e-12 -9.30143e-12 1.22428e-28 -4.85644e-12 -7.21784e-29 1.47294e-16)
(6.28105e-12 -1.10218e-11 -1.85291e-30 -6.28122e-12 1.07646e-30 1.78079e-16)
(8.06707e-12 -1.29872e-11 1.70447e-28 -8.06729e-12 -9.76431e-29 2.14617e-16)
(1.02225e-11 -1.51371e-11 2.01317e-28 -1.02228e-11 -1.10355e-28 2.56407e-16)
(1.2889e-11 -1.75528e-11 1.62993e-30 -1.28893e-11 -8.24982e-31 3.05696e-16)
(1.60668e-11 -2.01811e-11 5.44558e-28 -1.60671e-11 -2.6252e-28 3.62115e-16)
(1.98841e-11 -2.29903e-11 -6.29806e-28 -1.98846e-11 2.87972e-28 4.26697e-16)
(2.46695e-11 -2.63411e-11 3.66301e-28 -2.467e-11 -1.52376e-28 5.06614e-16)
(3.04818e-11 -3.01051e-11 1.69657e-27 -3.04824e-11 -7.0413e-28 6.01409e-16)
(3.76825e-11 -3.45037e-11 2.06081e-30 -3.76832e-11 -8.00354e-31 7.17225e-16)
(4.66773e-11 -3.97704e-11 1.14602e-27 -4.66782e-11 -4.22013e-28 8.60822e-16)
(5.72902e-11 -4.55646e-11 -1.04799e-30 -5.72913e-11 3.65583e-31 1.02756e-15)
(6.94393e-11 -5.1518e-11 9.88027e-31 -6.94405e-11 -3.26099e-31 1.21373e-15)
(8.39332e-11 -5.81468e-11 1.74681e-27 -8.39346e-11 -5.28541e-28 1.43332e-15)
(1.0103e-10 -6.54756e-11 9.94348e-28 -1.01032e-10 -3.14465e-28 1.68999e-15)
(1.22177e-10 -7.42873e-11 2.09923e-31 -1.22179e-10 -5.86055e-32 2.00718e-15)
(1.46439e-10 -8.39614e-11 -1.30677e-27 -1.46441e-10 3.33845e-28 2.3695e-15)
(1.7314e-10 -9.34595e-11 -2.20696e-27 -1.73143e-10 5.74102e-28 2.76187e-15)
(2.03795e-10 -1.03752e-10 1.6572e-27 -2.03798e-10 -3.9756e-28 3.21008e-15)
(2.38774e-10 -1.14715e-10 -4.65189e-27 -2.38778e-10 1.05949e-27 3.71844e-15)
(2.79813e-10 -1.27206e-10 -2.09319e-27 -2.79818e-10 4.27969e-28 4.31455e-15)
(3.27734e-10 -1.41489e-10 -1.73411e-30 -3.27739e-10 3.58643e-31 5.01076e-15)
(3.82644e-10 -1.57465e-10 -1.31364e-27 -3.8265e-10 2.93862e-28 5.8081e-15)
(4.44307e-10 -1.74736e-10 2.93398e-27 -4.44314e-10 -5.56195e-28 6.70159e-15)
(5.12003e-10 -1.92745e-10 1.53035e-30 -5.12011e-10 -2.79965e-31 7.67921e-15)
(5.86381e-10 -2.11217e-10 -5.40123e-27 -5.8639e-10 9.43112e-28 8.74852e-15)
(6.70312e-10 -2.31294e-10 -2.95697e-30 -6.70322e-10 4.94075e-31 9.95329e-15)
(7.64872e-10 -2.53058e-10 -2.18364e-27 -7.64884e-10 4.17636e-28 1.13085e-14)
(8.73493e-10 -2.77582e-10 7.24809e-30 -8.73506e-10 -1.12374e-30 1.2865e-14)
(9.977e-10 -3.05418e-10 -5.32424e-27 -9.97715e-10 7.96682e-28 1.46457e-14)
(1.13604e-09 -3.3553e-10 -1.17242e-26 -1.13605e-09 1.79141e-27 1.66269e-14)
(1.2885e-09 -3.67362e-10 -3.19479e-27 -1.28852e-09 5.55226e-28 1.88066e-14)
(1.45069e-09 -3.98826e-10 3.51435e-27 -1.45071e-09 -4.74284e-28 2.11181e-14)
(1.62146e-09 -4.27957e-10 7.59102e-27 -1.62148e-09 -9.84893e-28 2.35389e-14)
(1.80635e-09 -4.56143e-10 5.27513e-30 -1.80638e-09 -6.5561e-31 2.61508e-14)
(2.01317e-09 -4.85351e-10 4.44565e-27 -2.0132e-09 -5.28326e-28 2.90675e-14)
(2.23278e-09 -5.13287e-10 7.18629e-27 -2.23281e-09 -9.07583e-28 3.2158e-14)
(2.44963e-09 -5.32122e-10 -7.6692e-27 -2.44966e-09 9.24096e-28 3.51864e-14)
(2.6569e-09 -5.38752e-10 -1.32242e-30 -2.65694e-09 1.19433e-31 3.80532e-14)
(2.86754e-09 -5.33951e-10 6.96598e-31 -2.86758e-09 -5.72277e-32 4.09429e-14)
(3.0819e-09 -5.20128e-10 -7.31334e-31 -3.08194e-09 5.3579e-32 4.38719e-14)
(3.29739e-09 -4.92498e-10 -1.87935e-26 -3.29744e-09 1.52877e-27 4.67987e-14)
(3.51809e-09 -4.54471e-10 1.29859e-29 -3.51814e-09 -8.18355e-31 4.97937e-14)
(3.7553e-09 -4.04158e-10 -1.70368e-27 -3.75535e-09 1.63055e-29 5.30175e-14)
(4.03204e-09 -3.49676e-10 -9.42714e-30 -4.03209e-09 4.08267e-31 5.681e-14)
(4.35235e-09 -2.88042e-10 1.8774e-27 -4.35241e-09 -1.4851e-28 6.12272e-14)
(4.73682e-09 -2.24038e-10 -1.45864e-29 -4.73689e-09 3.21719e-31 6.65643e-14)
(5.24195e-09 -1.60639e-10 2.13701e-27 -5.24202e-09 -3.26857e-29 7.36138e-14)
(5.98937e-09 -1.21251e-10 -2.93162e-27 -5.98945e-09 2.96133e-29 8.40856e-14)
(7.04725e-09 -1.26695e-10 1.3226e-27 -7.04735e-09 -1.18547e-29 9.89313e-14)
(8.17135e-09 -1.54591e-10 2.19912e-27 -8.17147e-09 -2.08001e-29 1.14713e-13)
(9.05552e-09 -1.68929e-10 -7.88439e-28 -9.05565e-09 5.19034e-29 1.27125e-13)
(1.00994e-08 -1.95232e-10 -8.66541e-28 -1.00995e-08 8.37438e-30 1.4178e-13)
(1.13978e-08 -2.72947e-10 3.73122e-27 -1.1398e-08 1.12777e-29 1.60024e-13)
(1.18621e-08 -3.12967e-10 1.12755e-29 -1.18623e-08 -2.05134e-31 1.66558e-13)
(1.14615e-08 -1.5226e-10 -1.07442e-29 -1.14617e-08 7.13145e-32 1.60895e-13)
(1.19066e-08 -5.44459e-12 9.16582e-30 -1.19067e-08 5.46425e-32 1.67124e-13)
(1.34148e-08 -6.95785e-12 -3.91522e-30 -1.3415e-08 -6.33132e-32 1.8829e-13)
(1.4311e-08 -7.09028e-12 -2.33482e-33 -1.43112e-08 -1.04322e-33 2.00868e-13)
(1.5208e-08 -7.75659e-12 1.43535e-29 -1.52082e-08 1.35541e-31 2.1346e-13)
(1.59924e-08 -8.3331e-12 -4.15453e-30 -1.59926e-08 -6.95496e-32 2.24468e-13)
(1.67254e-08 -8.96406e-12 -6.11753e-30 -1.67256e-08 1.6386e-33 2.34758e-13)
(1.73835e-08 -9.59461e-12 -5.89655e-30 -1.73837e-08 1.6272e-33 2.43995e-13)
(1.79737e-08 -1.02346e-11 5.75183e-30 -1.79739e-08 -1.63805e-33 2.52278e-13)
(1.84638e-08 -1.08475e-11 3.62518e-30 -1.84641e-08 6.74553e-32 2.59158e-13)
(1.88422e-08 -1.14521e-11 -3.45583e-30 -1.88425e-08 -6.45821e-32 2.64469e-13)
(1.90708e-08 -1.19944e-11 -7.73091e-33 -1.90711e-08 1.98678e-36 2.67678e-13)
(1.91445e-08 -1.24808e-11 0 -1.91447e-08 0 2.68711e-13)
(1.89855e-08 -1.2829e-11 3.97298e-30 -1.89858e-08 -1.34234e-33 2.6648e-13)
(1.86111e-08 -1.30749e-11 -3.94264e-30 -1.86113e-08 2.59177e-32 2.61225e-13)
(1.80721e-08 -1.31358e-11 4.22171e-30 -1.80723e-08 -1.33921e-31 2.53659e-13)
(1.74212e-08 -1.31585e-11 2.04822e-29 -1.74214e-08 -4.78416e-32 2.44524e-13)
(1.65495e-08 -1.30258e-11 2.0939e-29 -1.65498e-08 2.63553e-32 2.32289e-13)
(1.53287e-08 -1.26357e-11 1.49386e-29 -1.53289e-08 -3.64604e-32 2.15154e-13)
(1.36056e-08 -1.18199e-11 1.0993e-30 -1.36058e-08 -9.71989e-32 1.90969e-13)
(1.14228e-08 -1.05462e-11 8.13471e-31 -1.1423e-08 1.79835e-32 1.6033e-13)
(8.97115e-09 -8.83146e-12 -1.50549e-30 -8.97128e-09 -1.34379e-32 1.25919e-13)
(6.47521e-09 -6.88016e-12 6.36522e-31 -6.47531e-09 -3.38179e-34 9.08862e-14)
(4.20763e-09 -4.91489e-12 0 -4.20769e-09 0 5.90583e-14)
(2.35861e-09 -3.11959e-12 8.82105e-35 -2.35865e-09 -5.48589e-38 3.31056e-14)
(1.06958e-09 -1.68907e-12 -5.77659e-32 -1.0696e-09 -9.53879e-34 1.50127e-14)
(3.4e-10 -7.15191e-13 2.44449e-32 -3.40005e-10 3.98127e-34 4.77227e-15)
(4.88635e-11 -1.8772e-13 4.45815e-33 -4.88641e-11 1.3334e-35 6.85859e-16)
(9.78645e-13 1.79058e-14 9.79239e-34 -9.78658e-13 1.12066e-35 1.37406e-17)
(1.25697e-10 2.26154e-13 -7.49612e-33 -1.25698e-10 -6.74316e-36 1.76428e-15)
(8.71472e-10 6.08053e-13 1.07797e-32 -8.71485e-10 3.76054e-36 1.2232e-14)
(3.365e-09 1.05927e-12 -2.54125e-32 -3.36505e-09 -3.99967e-36 4.72311e-14)
(9.37922e-09 1.26383e-12 0 -9.37935e-09 0 1.31647e-13)
(2.08092e-08 8.56616e-13 0 -2.08095e-08 0 2.92077e-13)
(3.87353e-08 -3.8168e-13 5.24723e-32 -3.87358e-08 -2.58526e-37 5.43688e-13)
(6.30237e-08 -2.40853e-12 -6.8809e-32 -6.30245e-08 1.31586e-36 8.84599e-13)
(9.17122e-08 -4.84702e-12 -7.27364e-32 -9.17135e-08 -3.85837e-32 1.28727e-12)
(1.22287e-07 -7.20001e-12 8.23953e-32 -1.22289e-07 4.37233e-32 1.71642e-12)
(1.51633e-07 -9.21332e-12 -7.66304e-32 -1.51636e-07 -5.26141e-32 2.12833e-12)
(1.78964e-07 -1.09614e-11 1.47099e-31 -1.78967e-07 1.10963e-31 2.51194e-12)
(2.01487e-07 -1.2115e-11 -6.77227e-32 -2.0149e-07 -5.6468e-32 2.82807e-12)
(2.20586e-07 -1.29781e-11 4.36332e-32 -2.20589e-07 5.78728e-32 3.09614e-12)
(2.33807e-07 -1.32989e-11 -9.06926e-32 -2.3381e-07 -5.53017e-32 3.28171e-12)
(2.45061e-07 -1.37355e-11 7.05162e-32 -2.45064e-07 5.36021e-32 3.43967e-12)
(2.5094e-07 -1.36727e-11 -2.243e-32 -2.50944e-07 -4.99208e-32 3.5222e-12)
(2.56933e-07 -1.39492e-11 -1.9872e-36 -2.56936e-07 -2.2797e-40 3.6063e-12)
(2.57486e-07 -1.35045e-11 0 -2.5749e-07 0 3.61408e-12)
(2.60071e-07 -1.36107e-11 -5.39097e-33 -2.60075e-07 1.41059e-37 3.65035e-12)
(2.56927e-07 -1.27663e-11 8.28928e-34 -2.56931e-07 -2.05929e-38 3.60622e-12)
(2.57352e-07 -1.27128e-11 2.20644e-33 -2.57356e-07 -5.44944e-38 3.61219e-12)
(2.51788e-07 -1.15604e-11 1.36031e-33 -2.51791e-07 -3.12271e-38 3.53409e-12)
(2.51101e-07 -1.1408e-11 7.4948e-35 -2.51105e-07 1.67573e-33 3.52445e-12)
(2.44132e-07 -1.01569e-11 -6.71325e-35 -2.44136e-07 -1.50108e-33 3.42664e-12)
(2.45227e-07 -1.04729e-11 -1.57125e-40 -2.4523e-07 -3.99973e-43 3.442e-12)
(1.19578e-05 -1.19218e-08 -1.83964e-31 -1.1958e-05 9.15999e-35 1.6784e-10)
(1.31101e-05 -1.42152e-08 -5.67501e-31 -1.31103e-05 3.07306e-34 1.84013e-10)
(1.24786e-05 -1.31711e-08 7.57375e-31 -1.24788e-05 -4.00065e-34 1.75149e-10)
(1.16862e-05 -1.19936e-08 4.74491e-30 -1.16864e-05 1.8992e-30 1.64028e-10)
(1.11598e-05 -1.12195e-08 -4.91905e-30 -1.11599e-05 -1.96865e-30 1.56639e-10)
(1.05232e-05 -1.02785e-08 -6.14336e-30 -1.05234e-05 4.03215e-30 1.47704e-10)
(9.95718e-06 -9.41689e-09 1.35907e-29 -9.95732e-06 -8.56801e-30 1.39759e-10)
(9.11829e-06 -8.14428e-09 -6.88148e-30 -9.11841e-06 8.91826e-30 1.27984e-10)
(8.15952e-06 -6.66055e-09 -6.0593e-31 -8.15964e-06 -4.67274e-30 1.14527e-10)
(6.75127e-06 -4.65758e-09 1.66679e-33 -6.75137e-06 -3.69596e-36 9.47609e-11)
(5.36738e-06 -2.7427e-09 -5.27065e-29 -5.36745e-06 1.3468e-32 7.53365e-11)
(3.64816e-06 -8.60032e-10 6.48267e-29 -3.64821e-06 -3.19535e-30 5.12055e-11)
(2.3571e-06 2.92705e-10 4.92836e-30 -2.35713e-06 2.77622e-30 3.30842e-11)
(1.158e-06 7.75923e-10 -4.32199e-29 -1.15802e-06 -1.3876e-30 1.62537e-11)
(5.02034e-07 7.3635e-10 1.90909e-29 -5.02041e-07 9.28734e-31 7.04655e-12)
(1.20951e-07 3.23153e-10 -1.152e-29 -1.20953e-07 -2.08574e-31 1.69768e-12)
(3.0129e-08 1.29541e-10 3.40378e-29 -3.01294e-08 5.34814e-31 4.22898e-13)
(1.09747e-10 4.43457e-12 9.58889e-30 -1.09748e-10 1.94348e-31 1.54243e-15)
(1.22529e-11 6.19503e-12 1.45195e-26 -1.22531e-11 3.44848e-27 1.87882e-16)
(1.28244e-07 1.18163e-07 -2.56072e-23 -1.28247e-07 -1.04171e-23 2.44943e-12)
(9.86795e-07 1.59045e-06 7.17675e-25 -9.86822e-07 5.1108e-24 2.62812e-11)
(4.98353e-06 1.0567e-05 -6.60466e-23 -4.9837e-06 -1.22476e-23 1.6399e-10)
(1.97098e-05 3.9258e-05 -2.46327e-22 -1.97105e-05 -4.43374e-23 6.16451e-10)
(5.50722e-05 7.89106e-05 1.24064e-25 -5.50735e-05 6.74975e-26 1.35028e-09)
(9.55312e-05 0.000103303 -2.63892e-25 -9.55331e-05 -1.22147e-25 1.9745e-09)
(0.00013566 0.000124272 3.41906e-21 -0.000135663 1.13653e-21 2.58187e-09)
(0.000173842 0.000133781 2.35651e-25 -0.000173845 9.03859e-26 3.07841e-09)
(0.000192779 0.000121971 -9.46433e-22 -0.000192782 -2.74255e-22 3.20145e-09)
(0.000192138 0.00010197 -1.01917e-21 -0.000192142 -2.5368e-22 3.05273e-09)
(0.000185094 8.42822e-05 8.84312e-27 -0.000185097 1.01835e-26 2.85436e-09)
(0.000174448 6.93334e-05 -3.7094e-21 -0.00017445 -6.17645e-22 2.63464e-09)
(0.000166244 5.8202e-05 1.12755e-21 -0.000166247 1.42891e-23 2.4721e-09)
(0.000158605 4.92777e-05 7.83782e-22 -0.000158607 1.18959e-22 2.331e-09)
(0.000155077 4.25021e-05 3.02224e-27 -0.000155079 4.0664e-28 2.25679e-09)
(0.000148709 3.55059e-05 9.34319e-26 -0.000148712 7.16614e-27 2.14582e-09)
(0.000144198 2.95464e-05 1.14303e-21 -0.0001442 7.53948e-23 2.06588e-09)
(0.00013656 2.35593e-05 -5.3382e-26 -0.000136562 -3.46157e-27 1.94495e-09)
(0.000131467 1.8595e-05 -1.27426e-22 -0.000131469 -2.86956e-23 1.86352e-09)
(0.000122956 1.36641e-05 -3.97089e-26 -0.000122958 -1.74492e-27 1.73632e-09)
(0.00011714 9.56066e-06 9.50482e-24 -0.000117142 -9.19659e-24 1.64954e-09)
(0.000107511 5.56146e-06 3.21589e-23 -0.000107512 1.01981e-23 1.51094e-09)
(0.000100719 2.4301e-06 2.56422e-26 -0.000100721 -1.26697e-28 1.41401e-09)
(9.19593e-05 -3.15998e-07 2.34023e-24 -9.19606e-05 -1.42713e-25 1.29065e-09)
(8.53461e-05 -2.61148e-06 -5.09736e-23 -8.53473e-05 -3.6586e-24 1.19839e-09)
(7.69503e-05 -4.4141e-06 -3.40685e-23 -7.69514e-05 9.7659e-25 1.08176e-09)
(7.01072e-05 -5.97597e-06 3.73102e-26 -7.01082e-05 -2.09422e-27 9.87507e-10)
(6.19703e-05 -6.93393e-06 3.72135e-24 -6.19712e-05 -8.15925e-24 8.75158e-10)
(5.47363e-05 -7.76863e-06 6.61232e-23 -5.4737e-05 -8.39497e-24 7.75893e-10)
(4.56616e-05 -7.85962e-06 1.428e-22 -4.56622e-05 -5.35403e-24 6.50255e-10)
(3.81335e-05 -7.68692e-06 2.57156e-23 -3.8134e-05 3.63907e-24 5.45941e-10)
(3.06089e-05 -7.08213e-06 -1.4085e-22 -3.06094e-05 8.01002e-24 4.40918e-10)
(2.40238e-05 -6.28905e-06 -4.42637e-23 -2.40242e-05 7.96215e-24 3.48508e-10)
(1.74096e-05 -5.15901e-06 3.63527e-26 -1.74098e-05 -5.48674e-27 2.54818e-10)
(1.12055e-05 -3.76174e-06 2.64089e-23 -1.12057e-05 -4.31456e-24 1.65873e-10)
(6.31902e-06 -2.3608e-06 -2.3784e-26 -6.31912e-06 4.37318e-27 9.46623e-11)
(3.18015e-06 -1.29779e-06 1.74817e-23 -3.1802e-06 -2.54973e-24 4.81991e-11)
(1.04521e-06 -4.84718e-07 8.53969e-24 -1.04522e-06 -1.56877e-24 1.61664e-11)
(9.17802e-08 -5.01093e-08 -2.00016e-24 -9.17817e-08 5.10454e-25 1.46751e-12)
(2.98404e-09 -2.55574e-09 -4.12451e-25 -2.9841e-09 1.52498e-25 5.52441e-14)
(1.18743e-08 -1.17116e-08 -5.52933e-25 -1.18745e-08 2.26797e-25 2.33857e-13)
(4.96536e-09 -6.56669e-09 -1.06186e-25 -4.96547e-09 5.12166e-26 1.15396e-13)
(1.40647e-09 -2.59642e-09 1.13874e-25 -1.40651e-09 -6.89678e-26 4.13973e-14)
(4.24659e-10 -1.04506e-09 3.11463e-30 -4.24674e-10 -2.09797e-30 1.58197e-14)
(1.72407e-10 -5.4991e-10 -8.74684e-27 -1.72415e-10 6.30638e-27 8.08409e-15)
(9.22172e-11 -3.70417e-10 6.09513e-27 -9.22225e-11 -4.68376e-27 5.35572e-15)
(3.13662e-11 -1.51651e-10 7.37447e-27 -3.13683e-11 -6.07099e-27 2.17298e-15)
(8.34934e-12 -4.60791e-11 -1.33003e-27 -8.34999e-12 1.10078e-27 6.57172e-16)
(3.14233e-12 -1.89378e-11 6.98472e-30 -3.14259e-12 -5.92254e-30 2.69416e-16)
(1.98836e-12 -1.26957e-11 5.10835e-28 -1.98854e-12 -4.31572e-28 1.80366e-16)
(1.98498e-12 -1.2243e-11 4.6262e-28 -1.98515e-12 -3.93653e-28 1.74101e-16)
(2.38501e-12 -1.3363e-11 -2.46498e-32 -2.3852e-12 2.05719e-32 1.90547e-16)
(3.22245e-12 -1.70529e-11 3.44503e-28 -3.2227e-12 -2.85498e-28 2.43604e-16)
(4.41502e-12 -2.28174e-11 -1.85859e-27 -4.41535e-12 1.54316e-27 3.2622e-16)
(5.9181e-12 -2.92831e-11 1.34437e-27 -5.91852e-12 -1.11232e-27 4.19367e-16)
(7.97124e-12 -3.64599e-11 5.32602e-30 -7.97176e-12 -4.28623e-30 5.23925e-16)
(1.09183e-11 -4.47721e-11 7.38408e-28 -1.09189e-11 -5.79973e-28 6.46981e-16)
(1.54799e-11 -5.63841e-11 -7.5599e-30 -1.54807e-11 5.76152e-30 8.20886e-16)
(2.15586e-11 -7.08532e-11 4.91088e-27 -2.15596e-11 -3.66868e-27 1.03975e-15)
(3.01823e-11 -9.05181e-11 1.2321e-27 -3.01837e-11 -8.69262e-28 1.33958e-15)
(4.11977e-11 -1.13676e-10 -8.91913e-33 -4.11994e-11 5.2295e-33 1.69752e-15)
(5.54824e-11 -1.39787e-10 2.45407e-28 -5.54845e-11 -1.37749e-28 2.11153e-15)
(7.41881e-11 -1.70503e-10 -4.39253e-27 -7.41908e-11 2.87905e-27 2.61071e-15)
(9.87573e-11 -2.07033e-10 -2.03218e-29 -9.87605e-11 1.28137e-29 3.22063e-15)
(1.30724e-10 -2.5056e-10 -1.31884e-26 -1.30728e-10 7.94222e-27 3.96807e-15)
(1.71448e-10 -3.01061e-10 5.21951e-29 -1.71453e-10 -3.03136e-29 4.86458e-15)
(2.23353e-10 -3.59819e-10 9.83569e-27 -2.23359e-10 -5.39428e-27 5.94646e-15)
(2.87905e-10 -4.26597e-10 1.16578e-26 -2.87912e-10 -6.10425e-27 7.22646e-15)
(3.69119e-10 -5.03004e-10 -3.65709e-29 -3.69128e-10 1.85027e-29 8.76051e-15)
(4.68811e-10 -5.89231e-10 -1.54055e-26 -4.68821e-10 7.42952e-27 1.05729e-14)
(5.91793e-10 -6.84683e-10 -1.03013e-26 -5.91806e-10 4.71213e-27 1.27075e-14)
(7.45512e-10 -7.9659e-10 -7.76434e-26 -7.45527e-10 3.34894e-26 1.53197e-14)
(9.34631e-10 -9.23779e-10 -1.0695e-26 -9.3465e-10 5.07419e-27 1.8452e-14)
(1.16838e-09 -1.07072e-09 -9.75293e-29 -1.1684e-09 3.78454e-29 2.22523e-14)
(1.45738e-09 -1.24284e-09 -3.46217e-26 -1.4574e-09 1.27579e-26 2.68934e-14)
(1.80329e-09 -1.43551e-09 -8.27821e-32 -1.80333e-09 1.0762e-32 3.23626e-14)
(2.20875e-09 -1.64022e-09 2.33389e-30 -2.20879e-09 -7.51081e-31 3.86283e-14)
(2.6911e-09 -1.86615e-09 -5.38703e-26 -2.69115e-09 1.74095e-26 4.59804e-14)
(3.25966e-09 -2.11476e-09 6.63313e-26 -3.25972e-09 -1.89937e-26 5.45544e-14)
(3.94797e-09 -2.40318e-09 -2.80313e-29 -3.94803e-09 7.74487e-30 6.48908e-14)
(4.74436e-09 -2.72324e-09 1.04721e-25 -4.74444e-09 -2.83786e-26 7.68025e-14)
(5.64071e-09 -3.04822e-09 -3.09789e-27 -5.6408e-09 2.63146e-28 9.0017e-14)
(6.66605e-09 -3.39762e-09 -5.25126e-26 -6.66616e-09 1.26108e-26 1.05043e-13)
(7.8368e-09 -3.76962e-09 2.39943e-25 -7.83692e-09 -5.61325e-26 1.22089e-13)
(9.19238e-09 -4.18429e-09 1.70212e-25 -9.19252e-09 -3.77547e-26 1.41792e-13)
(1.0758e-08 -4.65058e-09 3.23894e-29 -1.07581e-08 -6.8205e-30 1.64535e-13)
(1.25459e-08 -5.16978e-09 -8.91122e-26 -1.2546e-08 1.65548e-26 1.90491e-13)
(1.45574e-08 -5.73272e-09 -9.33167e-26 -1.45576e-08 1.77121e-26 2.19635e-13)
(1.67884e-08 -6.3283e-09 1.62002e-25 -1.67886e-08 -2.95192e-26 2.51864e-13)
(1.92585e-08 -6.94609e-09 -7.92809e-27 -1.92588e-08 -1.92166e-27 2.87398e-13)
(2.20357e-08 -7.61363e-09 1.97966e-25 -2.2036e-08 -3.32361e-26 3.27278e-13)
(2.51603e-08 -8.33569e-09 6.92326e-26 -2.51607e-08 -1.32723e-26 3.72075e-13)
(2.87152e-08 -9.138e-09 -1.60973e-28 -2.87156e-08 2.47519e-29 4.23011e-13)
(3.27536e-08 -1.00406e-08 1.70223e-25 -3.27541e-08 -2.55049e-26 4.80897e-13)
(3.72683e-08 -1.10222e-08 7.98942e-26 -3.72689e-08 -2.08673e-26 5.45551e-13)
(4.2273e-08 -1.20678e-08 -5.39725e-25 -4.22736e-08 7.20587e-26 6.17109e-13)
(4.77073e-08 -1.31312e-08 -4.60959e-25 -4.7708e-08 7.01907e-26 6.94593e-13)
(5.35559e-08 -1.41509e-08 1.37433e-25 -5.35567e-08 -1.78507e-26 7.77593e-13)
(5.99481e-08 -1.51545e-08 5.16701e-29 -5.9949e-08 -5.98617e-30 8.67998e-13)
(6.7063e-08 -1.61844e-08 -1.44647e-25 -6.7064e-08 1.72069e-26 9.68427e-13)
(7.47835e-08 -1.72062e-08 1.06575e-26 -7.47845e-08 1.80109e-27 1.07721e-12)
(8.28052e-08 -1.79987e-08 -2.7408e-25 -8.28064e-08 2.61228e-26 1.18955e-12)
(9.09991e-08 -1.84611e-08 -2.56275e-28 -9.10004e-08 2.5667e-29 1.30348e-12)
(9.95932e-08 -1.85517e-08 3.01369e-25 -9.95946e-08 -2.78296e-26 1.42218e-12)
(1.08701e-07 -1.83504e-08 1.14072e-27 -1.08703e-07 -9.54994e-29 1.54761e-12)
(1.18284e-07 -1.76702e-08 -2.91933e-26 -1.18285e-07 -1.19112e-26 1.67899e-12)
(1.285e-07 -1.66031e-08 -3.6443e-25 -1.28502e-07 2.34464e-26 1.819e-12)
(1.39612e-07 -1.50311e-08 2.55075e-25 -1.39614e-07 -1.09687e-26 1.97134e-12)
(1.52276e-07 -1.3215e-08 -7.63622e-30 -1.52279e-07 -1.83488e-30 2.14584e-12)
(1.66722e-07 -1.10472e-08 -6.92333e-26 -1.66724e-07 5.51791e-27 2.3457e-12)
(1.83581e-07 -8.70475e-09 1.17462e-25 -1.83584e-07 -2.78335e-27 2.5801e-12)
(2.04264e-07 -6.29584e-09 -8.0774e-26 -2.04267e-07 1.24464e-27 2.86881e-12)
(2.31726e-07 -4.73668e-09 1.10286e-25 -2.31729e-07 -3.38709e-27 3.25338e-12)
(2.68474e-07 -4.85484e-09 2.71131e-26 -2.68478e-07 -2.41391e-28 3.76894e-12)
(3.08902e-07 -5.81914e-09 -8.0933e-26 -3.08906e-07 3.76865e-27 4.3365e-12)
(3.45142e-07 -6.37056e-09 2.94726e-26 -3.45147e-07 -1.92989e-27 4.84522e-12)
(3.84948e-07 -7.34449e-09 -6.81441e-26 -3.84953e-07 -3.10769e-27 5.40396e-12)
(4.3129e-07 -1.01105e-08 -2.46478e-25 -4.31296e-07 5.01138e-27 6.05504e-12)
(4.62292e-07 -1.18425e-08 1.13879e-25 -4.62298e-07 -1.45188e-27 6.4912e-12)
(4.69709e-07 -5.93218e-09 5.70143e-26 -4.69716e-07 -3.73484e-28 6.59422e-12)
(4.92489e-07 2.76437e-12 9.14171e-29 -4.92496e-07 6.93408e-30 6.913e-12)
(5.4654e-07 2.08113e-11 -8.65929e-29 -5.46548e-07 -1.29881e-33 7.67123e-12)
(5.92564e-07 1.3102e-10 2.55199e-28 -5.92572e-07 2.78612e-32 8.31723e-12)
(6.37228e-07 1.92664e-10 -5.90274e-28 -6.37237e-07 8.59459e-30 8.94412e-12)
(6.80528e-07 2.60911e-10 4.42692e-28 -6.80538e-07 1.86188e-31 9.55189e-12)
(7.23558e-07 3.2915e-10 2.56871e-28 -7.23568e-07 -9.06571e-30 1.01559e-11)
(7.6592e-07 4.01795e-10 -5.46631e-28 -7.65931e-07 -9.48241e-30 1.07505e-11)
(8.07896e-07 4.80316e-10 2.75177e-28 -8.07908e-07 9.39356e-30 1.13396e-11)
(8.48598e-07 5.64602e-10 -1.63613e-28 -8.4861e-07 -5.40645e-32 1.19109e-11)
(8.87629e-07 6.55428e-10 1.61364e-28 -8.87642e-07 5.95601e-32 1.24588e-11)
(9.23674e-07 7.52387e-10 2.37166e-28 -9.23687e-07 9.65671e-32 1.29647e-11)
(9.56295e-07 8.52434e-10 -5.02388e-30 -9.56308e-07 -2.44141e-33 1.34226e-11)
(9.8274e-07 9.5552e-10 -2.07173e-28 -9.82754e-07 8.2116e-30 1.37937e-11)
(1.00316e-06 1.05674e-09 -4.26092e-29 -1.00318e-06 -9.28028e-30 1.40804e-11)
(1.02057e-06 1.17718e-09 3.15743e-28 -1.02059e-06 1.00916e-29 1.43248e-11)
(1.03995e-06 1.30451e-09 -1.38417e-27 -1.03997e-06 7.42193e-29 1.45968e-11)
(1.05544e-06 1.43264e-09 1.22591e-27 -1.05546e-06 7.12861e-29 1.48142e-11)
(1.0563e-06 1.55008e-09 -1.30074e-27 -1.05632e-06 6.41423e-29 1.48263e-11)
(1.02722e-06 1.62777e-09 4.42572e-28 -1.02724e-06 7.64234e-30 1.44181e-11)
(9.59815e-07 1.64868e-09 -1.23145e-28 -9.59828e-07 -1.0559e-31 1.3472e-11)
(8.57101e-07 1.6259e-09 5.66602e-29 -8.57113e-07 -3.67786e-30 1.20303e-11)
(7.25653e-07 1.53456e-09 2.96034e-30 -7.25664e-07 3.19269e-30 1.01853e-11)
(5.73879e-07 1.37735e-09 6.87913e-32 -5.73887e-07 9.65549e-35 8.05501e-12)
(4.10873e-07 1.15879e-09 0 -4.10879e-07 0 5.76706e-12)
(2.52168e-07 8.90707e-10 1.39602e-29 -2.52172e-07 2.46529e-32 3.53947e-12)
(1.15608e-07 5.85034e-10 -8.71396e-30 -1.1561e-07 -2.20471e-32 1.62272e-12)
(2.38874e-08 2.55302e-10 -2.44306e-30 -2.38878e-08 -1.30547e-32 3.35322e-13)
(2.88031e-09 -8.44465e-11 -7.42999e-31 -2.88035e-09 -8.05767e-33 4.04627e-14)
(8.02366e-08 -4.24098e-10 -1.82595e-31 -8.02377e-08 9.27019e-32 1.12623e-12)
(2.82108e-07 -7.613e-10 1.35791e-31 -2.82112e-07 -6.91785e-31 3.95969e-12)
(6.28293e-07 -1.10688e-09 -1.8958e-31 -6.28301e-07 9.54008e-31 8.81874e-12)
(1.12423e-06 -1.48211e-09 -7.0733e-31 -1.12425e-06 4.65172e-34 1.57797e-11)
(1.75763e-06 -1.9123e-09 8.14664e-31 -1.75765e-06 -4.43584e-34 2.46701e-11)
(2.49517e-06 -2.40688e-09 1.42563e-31 -2.4952e-06 3.78292e-30 3.50222e-11)
(3.2986e-06 -2.95811e-09 -1.49232e-31 -3.29865e-06 -4.03748e-30 4.62992e-11)
(4.10989e-06 -3.53191e-09 3.16594e-30 -4.10995e-06 -1.36092e-33 5.76864e-11)
(4.89106e-06 -4.11461e-09 -3.20492e-30 -4.89113e-06 1.34718e-33 6.8651e-11)
(5.59374e-06 -4.66991e-09 2.7492e-30 -5.59382e-06 -1.14675e-33 7.85137e-11)
(6.23348e-06 -5.21149e-09 -4.98367e-30 -6.23357e-06 2.08165e-33 8.74931e-11)
(6.74713e-06 -5.66541e-09 5.02123e-30 -6.74722e-06 -2.10634e-33 9.47027e-11)
(7.19191e-06 -6.08889e-09 -4.06611e-30 -7.19201e-06 1.7202e-33 1.00946e-10)
(7.48452e-06 -6.39018e-09 1.23082e-30 -7.48463e-06 -5.28734e-30 1.05053e-10)
(7.75225e-06 -6.68449e-09 4.69829e-31 -7.75236e-06 4.95066e-30 1.08811e-10)
(7.87154e-06 -6.80682e-09 -3.75767e-31 -7.87165e-06 1.62716e-34 1.10485e-10)
(8.0182e-06 -6.97328e-09 6.04126e-31 -8.01832e-06 -2.62451e-34 1.12544e-10)
(7.99754e-06 -6.93217e-09 -5.51064e-31 -7.99765e-06 2.38637e-34 1.12253e-10)
(8.05944e-06 -7.00172e-09 -7.70868e-33 -8.05955e-06 -1.81232e-30 1.13122e-10)
(7.92951e-06 -6.82326e-09 1.26811e-31 -7.92962e-06 2.15546e-33 1.11299e-10)
(7.9353e-06 -6.82672e-09 -6.51941e-32 -7.93541e-06 7.49587e-31 1.1138e-10)
(7.72825e-06 -6.55375e-09 -3.98871e-32 -7.72836e-06 6.68398e-31 1.08474e-10)
(7.70304e-06 -6.52418e-09 -2.23361e-33 -7.70315e-06 9.51016e-37 1.0812e-10)
(7.45508e-06 -6.21075e-09 1.99235e-33 -7.45519e-06 -8.29141e-37 1.0464e-10)
(7.49479e-06 -6.27426e-09 0 -7.49489e-06 0 1.05197e-10)