/*--------------------------------*- C++ -*----------------------------------*\
| =========                 |                                                 |
| \\      /  F ield         | OpenFOAM: The Open Source CFD Toolbox           |
|  \\    /   O peration     | Version:  2212                                  |
|   \\  /    A nd           | Website:  www.openfoam.com                      |
|    \\/     M anipulation  |                                                 |
\*---------------------------------------------------------------------------*/
FoamFile
{
    version     2.0;
    format      ascii;
    arch        "LSB;label=32;scalar=64";
    class       volScalarField;
    location    "5000";
    object      nut;
}
// * * * * * * * * * * * * * * * * * * * * * * * * * * * * * * * * * * * * * //

dimensions      [0 2 -1 0 0 0 0];

internalField   nonuniform List<scalar> 
10368
(
5.61306e-10
5.76208e-10
5.63596e-10
5.46908e-10
5.35501e-10
5.21122e-10
5.07445e-10
4.86206e-10
4.59735e-10
4.18043e-10
3.71067e-10
3.03732e-10
2.39682e-10
1.62378e-10
9.96951e-11
4.14868e-11
1.8639e-11
4.26631e-13
1.6677e-12
5.11321e-11
2.52734e-10
7.68869e-10
1.44636e-09
1.91356e-09
2.05936e-09
2.19727e-09
2.28173e-09
2.19967e-09
2.04916e-09
1.92953e-09
1.82415e-09
1.74829e-09
1.68687e-09
1.64959e-09
1.59752e-09
1.55585e-09
1.50023e-09
1.45934e-09
1.40126e-09
1.35774e-09
1.29109e-09
1.24267e-09
1.18232e-09
1.13369e-09
1.07219e-09
1.01777e-09
9.52901e-10
8.87451e-10
7.99111e-10
7.20258e-10
6.3484e-10
5.50677e-10
4.5172e-10
3.3738e-10
2.28156e-10
1.42513e-10
6.23697e-11
9.13339e-12
9.25327e-12
1.45638e-11
1.01351e-11
6.37419e-12
4.32755e-12
3.37678e-12
2.78829e-12
1.57137e-12
7.69344e-13
4.69246e-13
3.86329e-13
3.91366e-13
4.20297e-13
5.04461e-13
6.16312e-13
7.22313e-13
8.25613e-13
9.33855e-13
1.07689e-12
1.23499e-12
1.43389e-12
1.63945e-12
1.84621e-12
2.06915e-12
2.31396e-12
2.58452e-12
2.87422e-12
3.1899e-12
3.52266e-12
3.88432e-12
4.26618e-12
4.67094e-12
5.12948e-12
5.62858e-12
6.18602e-12
6.81587e-12
7.4848e-12
8.17186e-12
8.91634e-12
9.71591e-12
1.06219e-11
1.15728e-11
1.25247e-11
1.35314e-11
1.459e-11
1.5741e-11
1.69879e-11
1.83139e-11
1.96965e-11
2.1108e-11
2.2552e-11
2.40765e-11
2.56843e-11
2.74164e-11
2.92758e-11
3.12184e-11
3.32289e-11
3.52387e-11
3.72273e-11
3.9259e-11
4.14116e-11
4.35798e-11
4.55999e-11
4.74209e-11
4.91711e-11
5.08682e-11
5.24823e-11
5.40595e-11
5.56772e-11
5.75145e-11
5.95695e-11
6.19622e-11
6.50091e-11
6.93939e-11
7.52849e-11
8.11392e-11
8.54832e-11
9.03559e-11
9.61946e-11
9.8325e-11
9.64503e-11
9.8094e-11
1.04167e-10
1.07706e-10
1.11134e-10
1.14078e-10
1.16786e-10
1.19197e-10
1.21354e-10
1.23165e-10
1.2461e-10
1.25578e-10
1.26064e-10
1.25822e-10
1.24923e-10
1.23674e-10
1.2235e-10
1.20449e-10
1.17244e-10
1.1174e-10
1.03555e-10
9.3028e-11
8.05993e-11
6.69211e-11
5.25755e-11
3.8578e-11
2.59626e-11
1.58192e-11
9.9276e-12
1.89841e-11
3.51896e-11
6.04093e-11
9.48078e-11
1.36815e-10
1.83402e-10
2.31489e-10
2.77421e-10
3.18985e-10
3.54217e-10
3.84096e-10
4.07037e-10
4.2553e-10
4.37841e-10
4.48083e-10
4.53303e-10
4.58606e-10
4.59031e-10
4.61294e-10
4.58442e-10
4.58808e-10
4.53762e-10
4.53138e-10
4.46748e-10
4.47753e-10
2.96046e-09
3.1678e-09
3.08115e-09
2.97229e-09
2.89781e-09
2.80645e-09
2.72515e-09
2.60152e-09
2.4573e-09
2.22929e-09
1.98759e-09
1.63911e-09
1.32883e-09
9.4914e-10
6.55198e-10
3.65834e-10
1.99462e-10
7.62217e-11
1.91279e-10
5.85273e-10
1.22373e-09
2.37407e-09
4.55193e-09
7.27314e-09
9.45351e-09
1.12157e-08
1.25105e-08
1.3017e-08
1.2901e-08
1.24897e-08
1.1937e-08
1.14763e-08
1.10411e-08
1.0772e-08
1.0424e-08
1.01634e-08
9.79604e-09
9.53167e-09
9.13959e-09
8.85848e-09
8.43544e-09
8.12213e-09
7.72068e-09
7.41176e-09
7.01685e-09
6.69265e-09
6.28885e-09
5.92972e-09
5.46088e-09
5.04045e-09
4.57428e-09
4.12158e-09
3.60671e-09
3.05085e-09
2.48456e-09
1.94671e-09
1.36615e-09
7.90574e-10
3.94072e-10
1.96858e-10
9.96614e-11
4.64617e-11
2.34286e-11
1.45128e-11
1.14163e-11
8.10815e-12
4.87953e-12
3.2153e-12
2.59946e-12
2.49378e-12
2.5812e-12
2.79429e-12
3.10707e-12
3.47058e-12
3.87712e-12
4.33699e-12
4.90525e-12
5.55669e-12
6.32867e-12
7.18728e-12
8.13567e-12
9.19682e-12
1.03936e-11
1.17394e-11
1.32365e-11
1.49e-11
1.67321e-11
1.87564e-11
2.09791e-11
2.34111e-11
2.60973e-11
2.90457e-11
3.22794e-11
3.5833e-11
3.96866e-11
4.37864e-11
4.8166e-11
5.28256e-11
5.78907e-11
6.32901e-11
6.89002e-11
7.47665e-11
8.09141e-11
8.74247e-11
9.4342e-11
1.0167e-10
1.09359e-10
1.17358e-10
1.25646e-10
1.34328e-10
1.43457e-10
1.53133e-10
1.63435e-10
1.74313e-10
1.85733e-10
1.97594e-10
2.0978e-10
2.22415e-10
2.35717e-10
2.49661e-10
2.63831e-10
2.78037e-10
2.92374e-10
3.07141e-10
3.22191e-10
3.3773e-10
3.53805e-10
3.71078e-10
3.89635e-10
4.09862e-10
4.3242e-10
4.59421e-10
4.92529e-10
5.28439e-10
5.62186e-10
5.9565e-10
6.32588e-10
6.66399e-10
6.83995e-10
7.02443e-10
7.37422e-10
7.76106e-10
8.11686e-10
8.47312e-10
8.83036e-10
9.19114e-10
9.55905e-10
9.93358e-10
1.03163e-09
1.07047e-09
1.11007e-09
1.15003e-09
1.19111e-09
1.23795e-09
1.29757e-09
1.36827e-09
1.4434e-09
1.51229e-09
1.56588e-09
1.60716e-09
1.64319e-09
1.67391e-09
1.69962e-09
1.72141e-09
1.74056e-09
1.75717e-09
1.77238e-09
1.79656e-09
1.82439e-09
1.85795e-09
1.89803e-09
1.9449e-09
1.99714e-09
2.05346e-09
2.11003e-09
2.16682e-09
2.21971e-09
2.27258e-09
2.31504e-09
2.35594e-09
2.37966e-09
2.40622e-09
2.4135e-09
2.42899e-09
2.41961e-09
2.4259e-09
2.40101e-09
2.40068e-09
2.36345e-09
2.35895e-09
2.31507e-09
2.3221e-09
5.59981e-08
6.07224e-08
5.89998e-08
5.68514e-08
5.53814e-08
5.35854e-08
5.20036e-08
4.96063e-08
4.68414e-08
4.24675e-08
3.78834e-08
3.12685e-08
2.54585e-08
1.8335e-08
1.28797e-08
7.45141e-09
4.13596e-09
1.70481e-09
4.26503e-09
1.21964e-08
2.28191e-08
3.91283e-08
7.54119e-08
1.2749e-07
1.73326e-07
2.09761e-07
2.36773e-07
2.49701e-07
2.50314e-07
2.43697e-07
2.33588e-07
2.24884e-07
2.16425e-07
2.11171e-07
2.04437e-07
1.99441e-07
1.92323e-07
1.87212e-07
1.79565e-07
1.74112e-07
1.65913e-07
1.59816e-07
1.51956e-07
1.45943e-07
1.38229e-07
1.31966e-07
1.24096e-07
1.17236e-07
1.08321e-07
1.00312e-07
9.13802e-08
8.27209e-08
7.29213e-08
6.24765e-08
5.17055e-08
4.1149e-08
2.95408e-08
1.75836e-08
8.68577e-09
4.15722e-09
2.05313e-09
9.26615e-10
4.4635e-10
2.63263e-10
2.04491e-10
1.52915e-10
9.53659e-11
6.35271e-11
5.11975e-11
4.87081e-11
5.01224e-11
5.33306e-11
5.82623e-11
6.44458e-11
7.16483e-11
7.99564e-11
9.0048e-11
1.01726e-10
1.1535e-10
1.30799e-10
1.48243e-10
1.67919e-10
1.90234e-10
2.15416e-10
2.43639e-10
2.75118e-10
3.1007e-10
3.488e-10
3.91615e-10
4.38703e-10
4.905e-10
5.47435e-10
6.09693e-10
6.77784e-10
7.51891e-10
8.312e-10
9.15727e-10
1.00552e-09
1.10243e-09
1.20602e-09
1.31434e-09
1.4274e-09
1.54581e-09
1.67065e-09
1.80285e-09
1.94282e-09
2.08982e-09
2.2433e-09
2.40264e-09
2.56936e-09
2.74457e-09
2.92977e-09
3.12668e-09
3.335e-09
3.55427e-09
3.78346e-09
4.02038e-09
4.26661e-09
4.52559e-09
4.79876e-09
5.07981e-09
5.36539e-09
5.65525e-09
5.95582e-09
6.2643e-09
6.58447e-09
6.91596e-09
7.27029e-09
7.64947e-09
8.05991e-09
8.51051e-09
9.03607e-09
9.67116e-09
1.03704e-08
1.1049e-08
1.17112e-08
1.24341e-08
1.31562e-08
1.3587e-08
1.39708e-08
1.46453e-08
1.54507e-08
1.61878e-08
1.69352e-08
1.76891e-08
1.84565e-08
1.92447e-08
2.00542e-08
2.08889e-08
2.17452e-08
2.26273e-08
2.35308e-08
2.44715e-08
2.55481e-08
2.69136e-08
2.85385e-08
3.02867e-08
3.19359e-08
3.32894e-08
3.4408e-08
3.54428e-08
3.63802e-08
3.72169e-08
3.79589e-08
3.86168e-08
3.91738e-08
3.96246e-08
4.0003e-08
4.0337e-08
4.06382e-08
4.09201e-08
4.12152e-08
4.15454e-08
4.19374e-08
4.23715e-08
4.28883e-08
4.34323e-08
4.40734e-08
4.46071e-08
4.51878e-08
4.54949e-08
4.59043e-08
4.59716e-08
4.62228e-08
4.60031e-08
4.61031e-08
4.5594e-08
4.55797e-08
4.48327e-08
4.47427e-08
4.38704e-08
4.40106e-08
4.66536e-07
5.09952e-07
4.96147e-07
4.78928e-07
4.67099e-07
4.52612e-07
4.39843e-07
4.20422e-07
3.97954e-07
3.62115e-07
3.2425e-07
2.68919e-07
2.19772e-07
1.5878e-07
1.117e-07
6.46519e-08
3.58762e-08
1.48094e-08
3.70087e-08
1.05708e-07
1.96954e-07
3.27139e-07
5.90713e-07
9.43846e-07
1.24664e-06
1.47737e-06
1.64563e-06
1.73746e-06
1.7614e-06
1.73485e-06
1.68208e-06
1.63368e-06
1.58418e-06
1.55278e-06
1.51247e-06
1.48257e-06
1.43913e-06
1.40763e-06
1.35965e-06
1.32511e-06
1.27278e-06
1.23322e-06
1.18131e-06
1.14123e-06
1.08902e-06
1.04637e-06
9.91649e-07
9.43704e-07
8.80594e-07
8.22764e-07
7.56642e-07
6.91089e-07
6.15133e-07
5.3242e-07
4.44552e-07
3.55774e-07
2.56094e-07
1.52368e-07
7.5312e-08
3.60784e-08
1.78143e-08
8.03372e-09
3.86219e-09
2.27133e-09
1.7622e-09
1.32122e-09
8.25659e-10
5.50071e-10
4.42953e-10
4.21078e-10
4.331e-10
4.60407e-10
5.02555e-10
5.55655e-10
6.17642e-10
6.89197e-10
7.76029e-10
8.76556e-10
9.93755e-10
1.1268e-09
1.2772e-09
1.4469e-09
1.63941e-09
1.8567e-09
2.10031e-09
2.37209e-09
2.67398e-09
3.00856e-09
3.37857e-09
3.78559e-09
4.23327e-09
4.7254e-09
5.26349e-09
5.85193e-09
6.49253e-09
7.17833e-09
7.90924e-09
8.68561e-09
9.52339e-09
1.04192e-08
1.13562e-08
1.23342e-08
1.33585e-08
1.44384e-08
1.55818e-08
1.67926e-08
1.80645e-08
1.93928e-08
2.0772e-08
2.22152e-08
2.37321e-08
2.53353e-08
2.70401e-08
2.88441e-08
3.07434e-08
3.27294e-08
3.47831e-08
3.69177e-08
3.91629e-08
4.15322e-08
4.39712e-08
4.64509e-08
4.89681e-08
5.1579e-08
5.42594e-08
5.70419e-08
5.99226e-08
6.30014e-08
6.62957e-08
6.98607e-08
7.3772e-08
7.83287e-08
8.38353e-08
8.9905e-08
9.57999e-08
1.01546e-07
1.07821e-07
1.14111e-07
1.17871e-07
1.21195e-07
1.27041e-07
1.34044e-07
1.40446e-07
1.46938e-07
1.53487e-07
1.60154e-07
1.67001e-07
1.74033e-07
1.81284e-07
1.88721e-07
1.96379e-07
2.04219e-07
2.12381e-07
2.21718e-07
2.33553e-07
2.47624e-07
2.62744e-07
2.76982e-07
2.88634e-07
2.98219e-07
3.07039e-07
3.14976e-07
3.22004e-07
3.28198e-07
3.33686e-07
3.38379e-07
3.42291e-07
3.45706e-07
3.48914e-07
3.51933e-07
3.54727e-07
3.57408e-07
3.60049e-07
3.62862e-07
3.65758e-07
3.69207e-07
3.72869e-07
3.77399e-07
3.81151e-07
3.85416e-07
3.87544e-07
3.90617e-07
3.90964e-07
3.92881e-07
3.90979e-07
3.91733e-07
3.875e-07
3.87362e-07
3.81184e-07
3.8044e-07
3.73237e-07
3.74395e-07
2.06738e-06
2.22257e-06
2.17302e-06
2.11157e-06
2.06884e-06
2.01625e-06
1.96992e-06
1.89885e-06
1.81612e-06
1.68082e-06
1.53422e-06
1.30974e-06
1.10017e-06
8.21758e-07
5.92139e-07
3.48416e-07
1.93948e-07
7.99021e-08
1.99114e-07
5.67381e-07
1.01801e-06
1.47588e-06
2.24022e-06
3.21797e-06
4.04672e-06
4.65764e-06
5.10071e-06
5.38073e-06
5.52106e-06
5.5146e-06
5.42518e-06
5.33034e-06
5.2226e-06
5.15137e-06
5.06036e-06
4.99346e-06
4.89386e-06
4.82059e-06
4.7061e-06
4.62246e-06
4.49638e-06
4.39884e-06
4.26784e-06
4.16561e-06
4.03004e-06
3.91938e-06
3.77276e-06
3.6444e-06
3.47552e-06
3.31683e-06
3.12721e-06
2.93115e-06
2.69287e-06
2.42463e-06
2.11772e-06
1.76754e-06
1.32595e-06
8.11759e-07
4.03599e-07
1.94455e-07
9.63306e-08
4.35009e-08
2.09129e-08
1.22861e-08
9.52475e-09
7.1444e-09
4.46765e-09
2.97552e-09
2.39431e-09
2.27486e-09
2.33914e-09
2.48601e-09
2.71321e-09
2.99982e-09
3.33455e-09
3.72089e-09
4.1896e-09
4.73227e-09
5.36499e-09
6.08352e-09
6.89592e-09
7.81261e-09
8.85259e-09
1.00265e-08
1.13429e-08
1.28115e-08
1.44431e-08
1.62515e-08
1.82518e-08
2.04522e-08
2.28726e-08
2.55336e-08
2.84434e-08
3.16258e-08
3.50911e-08
3.88014e-08
4.27561e-08
4.69569e-08
5.14905e-08
5.63392e-08
6.14114e-08
6.67054e-08
7.22508e-08
7.80965e-08
8.42866e-08
9.08416e-08
9.77273e-08
1.04918e-07
1.12384e-07
1.20194e-07
1.28401e-07
1.37073e-07
1.46291e-07
1.56044e-07
1.66307e-07
1.77036e-07
1.88124e-07
1.99641e-07
2.11748e-07
2.24518e-07
2.37658e-07
2.5101e-07
2.64553e-07
2.78591e-07
2.92993e-07
3.07932e-07
3.23381e-07
3.39872e-07
3.57495e-07
3.76533e-07
3.97368e-07
4.21556e-07
4.5074e-07
4.8288e-07
5.14065e-07
5.44339e-07
5.77367e-07
6.10682e-07
6.30675e-07
6.48033e-07
6.78438e-07
7.15164e-07
7.48613e-07
7.82532e-07
8.16716e-07
8.51499e-07
8.87213e-07
9.23893e-07
9.61729e-07
1.00057e-06
1.04056e-06
1.08155e-06
1.12429e-06
1.17311e-06
1.23478e-06
1.3079e-06
1.38634e-06
1.46021e-06
1.52076e-06
1.57041e-06
1.61557e-06
1.6554e-06
1.68971e-06
1.71909e-06
1.74478e-06
1.76731e-06
1.78774e-06
1.8079e-06
1.82815e-06
1.84559e-06
1.85597e-06
1.85678e-06
1.8481e-06
1.83327e-06
1.81588e-06
1.80157e-06
1.79151e-06
1.78892e-06
1.78763e-06
1.79207e-06
1.79144e-06
1.79692e-06
1.79391e-06
1.79819e-06
1.78888e-06
1.79039e-06
1.77312e-06
1.77213e-06
1.74765e-06
1.74471e-06
1.71641e-06
1.7209e-06
5.54973e-06
5.83058e-06
5.729e-06
5.60571e-06
5.51891e-06
5.41203e-06
5.31881e-06
5.17536e-06
5.00935e-06
4.73239e-06
4.42833e-06
3.94229e-06
3.46789e-06
2.77932e-06
2.14759e-06
1.36854e-06
7.89199e-07
3.28519e-07
8.10934e-07
2.2348e-06
3.53701e-06
4.20848e-06
5.28242e-06
6.90892e-06
8.36063e-06
9.44579e-06
1.02487e-05
1.08129e-05
1.12022e-05
1.13144e-05
1.1255e-05
1.11553e-05
1.1015e-05
1.09145e-05
1.07878e-05
1.06963e-05
1.05581e-05
1.04539e-05
1.02767e-05
1.01442e-05
9.9501e-06
9.79701e-06
9.58855e-06
9.4245e-06
9.20596e-06
9.02958e-06
8.79115e-06
8.58341e-06
8.32151e-06
8.07616e-06
7.77466e-06
7.45287e-06
7.04868e-06
6.60494e-06
6.09199e-06
5.4234e-06
4.44296e-06
3.06595e-06
1.62018e-06
7.91648e-07
3.96456e-07
1.79971e-07
8.66358e-08
5.0861e-08
3.93965e-08
2.95548e-08
1.84924e-08
1.2312e-08
9.89926e-09
9.40018e-09
9.66285e-09
1.02674e-08
1.12051e-08
1.23892e-08
1.37725e-08
1.53687e-08
1.73049e-08
1.95467e-08
2.21612e-08
2.51314e-08
2.84898e-08
3.22795e-08
3.65792e-08
4.1433e-08
4.68763e-08
5.29499e-08
5.96978e-08
6.71768e-08
7.54498e-08
8.45502e-08
9.45594e-08
1.05563e-07
1.17594e-07
1.30749e-07
1.45072e-07
1.60403e-07
1.76736e-07
1.94074e-07
2.12772e-07
2.32758e-07
2.53647e-07
2.75423e-07
2.98204e-07
3.2218e-07
3.47526e-07
3.74318e-07
4.02406e-07
4.31675e-07
4.61986e-07
4.93606e-07
5.26729e-07
5.61611e-07
5.98563e-07
6.3752e-07
6.78373e-07
7.20928e-07
7.64744e-07
8.10066e-07
8.57516e-07
9.07411e-07
9.58619e-07
1.01049e-06
1.06293e-06
1.1171e-06
1.17248e-06
1.22967e-06
1.28851e-06
1.35092e-06
1.41716e-06
1.48808e-06
1.56484e-06
1.65297e-06
1.75774e-06
1.87376e-06
1.98606e-06
2.09382e-06
2.21154e-06
2.33278e-06
2.40655e-06
2.46759e-06
2.57197e-06
2.70179e-06
2.8192e-06
2.93848e-06
3.05871e-06
3.18122e-06
3.30725e-06
3.43713e-06
3.57159e-06
3.7104e-06
3.8539e-06
4.00227e-06
4.15797e-06
4.33546e-06
4.55721e-06
4.81855e-06
5.09911e-06
5.36638e-06
5.59078e-06
5.77907e-06
5.95035e-06
6.09937e-06
6.22406e-06
6.32635e-06
6.41278e-06
6.48945e-06
6.56344e-06
6.638e-06
6.70025e-06
6.71687e-06
6.65314e-06
6.49796e-06
6.27075e-06
6.00956e-06
5.7527e-06
5.53151e-06
5.35694e-06
5.23229e-06
5.14129e-06
5.0862e-06
5.03906e-06
5.01842e-06
4.99031e-06
4.98416e-06
4.95441e-06
4.95078e-06
4.90894e-06
4.90446e-06
4.8488e-06
4.84202e-06
4.77915e-06
4.78865e-06
1.09789e-05
1.13939e-05
1.12295e-05
1.10365e-05
1.08991e-05
1.07306e-05
1.0586e-05
1.03642e-05
1.01118e-05
9.68754e-06
9.224e-06
8.47032e-06
7.72648e-06
6.59533e-06
5.50015e-06
3.97806e-06
2.52722e-06
1.13323e-06
2.71977e-06
6.71829e-06
9.04094e-06
9.3448e-06
9.64698e-06
1.20256e-05
1.41769e-05
1.58315e-05
1.70861e-05
1.80052e-05
1.87293e-05
1.90252e-05
1.90322e-05
1.89472e-05
1.87812e-05
1.86511e-05
1.84823e-05
1.83608e-05
1.81751e-05
1.80313e-05
1.78057e-05
1.76288e-05
1.73848e-05
1.71874e-05
1.69183e-05
1.6702e-05
1.64178e-05
1.61901e-05
1.58829e-05
1.56098e-05
1.53022e-05
1.50253e-05
1.46816e-05
1.42609e-05
1.37121e-05
1.31445e-05
1.25376e-05
1.16656e-05
1.0231e-05
8.15517e-06
5.13106e-06
2.64585e-06
1.3598e-06
6.27661e-07
3.0396e-07
1.78542e-07
1.38205e-07
1.03701e-07
6.49397e-08
4.32252e-08
3.47263e-08
3.29555e-08
3.38644e-08
3.59754e-08
3.92598e-08
4.34122e-08
4.82646e-08
5.38606e-08
6.06478e-08
6.8506e-08
7.76726e-08
8.80895e-08
9.98672e-08
1.13154e-07
1.28225e-07
1.45234e-07
1.64301e-07
1.85565e-07
2.09176e-07
2.35321e-07
2.64216e-07
2.95958e-07
3.30814e-07
3.69065e-07
4.1079e-07
4.56298e-07
5.05714e-07
5.58434e-07
6.14379e-07
6.73483e-07
7.36927e-07
8.04413e-07
8.74562e-07
9.47219e-07
1.0227e-06
1.10153e-06
1.18422e-06
1.27094e-06
1.36112e-06
1.45429e-06
1.5499e-06
1.64864e-06
1.75104e-06
1.85775e-06
1.96968e-06
2.08661e-06
2.20816e-06
2.33376e-06
2.46198e-06
2.59343e-06
2.73004e-06
2.87302e-06
3.01921e-06
3.16655e-06
3.31461e-06
3.46666e-06
3.62119e-06
3.77948e-06
3.94074e-06
4.10973e-06
4.28686e-06
4.47357e-06
4.67209e-06
4.89736e-06
5.15745e-06
5.45628e-06
5.74329e-06
6.01616e-06
6.31874e-06
6.63726e-06
6.83172e-06
6.98476e-06
7.24167e-06
7.57184e-06
7.86938e-06
8.1729e-06
8.47959e-06
8.7932e-06
9.11703e-06
9.45247e-06
9.80104e-06
1.01633e-05
1.05398e-05
1.09323e-05
1.13464e-05
1.18154e-05
1.23916e-05
1.30631e-05
1.37822e-05
1.44749e-05
1.50735e-05
1.55923e-05
1.60726e-05
1.64977e-05
1.68602e-05
1.71611e-05
1.74134e-05
1.76276e-05
1.78099e-05
1.79463e-05
1.79742e-05
1.77876e-05
1.73005e-05
1.651e-05
1.55054e-05
1.44191e-05
1.33834e-05
1.24926e-05
1.17849e-05
1.12544e-05
1.08654e-05
1.06004e-05
1.03974e-05
1.02754e-05
1.01709e-05
1.01198e-05
1.0045e-05
1.00207e-05
9.93981e-06
9.92592e-06
9.82721e-06
9.81468e-06
9.70707e-06
9.72175e-06
1.83009e-05
1.88669e-05
1.86303e-05
1.83643e-05
1.81724e-05
1.79387e-05
1.77427e-05
1.74448e-05
1.71146e-05
1.65618e-05
1.59695e-05
1.50155e-05
1.4044e-05
1.2503e-05
1.09899e-05
8.83378e-06
6.29406e-06
3.37048e-06
7.62914e-06
1.591e-05
1.90782e-05
1.85931e-05
1.60974e-05
1.89636e-05
2.1713e-05
2.39558e-05
2.573e-05
2.7083e-05
2.82697e-05
2.8876e-05
2.9045e-05
2.90395e-05
2.88927e-05
2.87539e-05
2.85585e-05
2.84164e-05
2.81963e-05
2.80186e-05
2.77443e-05
2.75155e-05
2.72158e-05
2.69684e-05
2.6631e-05
2.63509e-05
2.59863e-05
2.56902e-05
2.52954e-05
2.49231e-05
2.45324e-05
2.41923e-05
2.37742e-05
2.33108e-05
2.26671e-05
2.20602e-05
2.14752e-05
2.04987e-05
1.86248e-05
1.62513e-05
1.24324e-05
7.41643e-06
3.99973e-06
1.92335e-06
9.49472e-07
5.60737e-07
4.34427e-07
3.26442e-07
2.04862e-07
1.36409e-07
1.09513e-07
1.03863e-07
1.06682e-07
1.13303e-07
1.23644e-07
1.3673e-07
1.5202e-07
1.69636e-07
1.90984e-07
2.15683e-07
2.44476e-07
2.77176e-07
3.14098e-07
3.55675e-07
4.02731e-07
4.55706e-07
5.14919e-07
5.80717e-07
6.53486e-07
7.33676e-07
8.21837e-07
9.18063e-07
1.02296e-06
1.13716e-06
1.26059e-06
1.39392e-06
1.53729e-06
1.68858e-06
1.84718e-06
2.01246e-06
2.18769e-06
2.37178e-06
2.56065e-06
2.7534e-06
2.95065e-06
3.15352e-06
3.36322e-06
3.58018e-06
3.80289e-06
4.02997e-06
4.25973e-06
4.49361e-06
4.73288e-06
4.97904e-06
5.23449e-06
5.49912e-06
5.77217e-06
6.05247e-06
6.33672e-06
6.62607e-06
6.92581e-06
7.23938e-06
7.56002e-06
7.88188e-06
8.20414e-06
8.53345e-06
8.86658e-06
9.20495e-06
9.54656e-06
9.90051e-06
1.02676e-05
1.06494e-05
1.105e-05
1.14998e-05
1.20167e-05
1.26388e-05
1.3227e-05
1.3787e-05
1.44205e-05
1.50853e-05
1.54846e-05
1.57918e-05
1.63162e-05
1.69916e-05
1.76002e-05
1.82212e-05
1.88487e-05
1.94906e-05
2.0153e-05
2.08392e-05
2.1552e-05
2.22918e-05
2.30604e-05
2.38619e-05
2.47061e-05
2.56532e-05
2.67976e-05
2.81151e-05
2.95176e-05
3.0875e-05
3.20707e-05
3.31362e-05
3.41489e-05
3.50788e-05
3.59114e-05
3.66365e-05
3.72526e-05
3.77365e-05
3.80492e-05
3.81284e-05
3.78609e-05
3.70952e-05
3.57254e-05
3.37639e-05
3.13633e-05
2.87559e-05
2.62133e-05
2.39544e-05
2.21039e-05
2.06638e-05
1.95879e-05
1.88124e-05
1.81643e-05
1.7751e-05
1.74485e-05
1.72705e-05
1.70975e-05
1.70169e-05
1.68713e-05
1.68345e-05
1.66757e-05
1.66536e-05
1.64888e-05
1.65073e-05
2.80225e-05
2.88326e-05
2.85048e-05
2.81456e-05
2.7884e-05
2.75666e-05
2.73046e-05
2.69086e-05
2.64767e-05
2.57552e-05
2.49843e-05
2.37466e-05
2.25735e-05
2.08142e-05
1.89329e-05
1.63361e-05
1.2693e-05
8.40883e-06
1.76921e-05
3.15464e-05
3.56411e-05
3.42238e-05
2.67926e-05
2.82922e-05
3.12004e-05
3.39e-05
3.62034e-05
3.80563e-05
3.9835e-05
4.09242e-05
4.14047e-05
4.15896e-05
4.15476e-05
4.14457e-05
4.12589e-05
4.11174e-05
4.08925e-05
4.06956e-05
4.03927e-05
4.01135e-05
3.97709e-05
3.94809e-05
3.90894e-05
3.87464e-05
3.83086e-05
3.79391e-05
3.74641e-05
3.69702e-05
3.64851e-05
3.60777e-05
3.55866e-05
3.504e-05
3.421e-05
3.33848e-05
3.28689e-05
3.19995e-05
2.95694e-05
2.70234e-05
2.36157e-05
1.7154e-05
1.00587e-05
5.18568e-06
2.67611e-06
1.60888e-06
1.25386e-06
9.48067e-07
5.98988e-07
3.99908e-07
3.21072e-07
3.04336e-07
3.12407e-07
3.31631e-07
3.61745e-07
3.99886e-07
4.44357e-07
4.95425e-07
5.57079e-07
6.28129e-07
7.10584e-07
8.0382e-07
9.08463e-07
1.02544e-06
1.15674e-06
1.30322e-06
1.46531e-06
1.64343e-06
1.83809e-06
2.04978e-06
2.27935e-06
2.52609e-06
2.79069e-06
3.07403e-06
3.37499e-06
3.69463e-06
4.03289e-06
4.38381e-06
4.74525e-06
5.11488e-06
5.50123e-06
5.90137e-06
6.30598e-06
6.71229e-06
7.12168e-06
7.53655e-06
7.96009e-06
8.39365e-06
8.83458e-06
9.27964e-06
9.72519e-06
1.01738e-05
1.06288e-05
1.10934e-05
1.15733e-05
1.20693e-05
1.25803e-05
1.31038e-05
1.36336e-05
1.41714e-05
1.47294e-05
1.53145e-05
1.59136e-05
1.65125e-05
1.71105e-05
1.77187e-05
1.83313e-05
1.89487e-05
1.95676e-05
2.02034e-05
2.08585e-05
2.15346e-05
2.22394e-05
2.30177e-05
2.39489e-05
2.50775e-05
2.6127e-05
2.71311e-05
2.82729e-05
2.9446e-05
3.01371e-05
3.06685e-05
3.15976e-05
3.27768e-05
3.38363e-05
3.49128e-05
3.5997e-05
3.71018e-05
3.82378e-05
3.94105e-05
4.06233e-05
4.18763e-05
4.31748e-05
4.45254e-05
4.59443e-05
4.75245e-05
4.94154e-05
5.15775e-05
5.38746e-05
5.6112e-05
5.81184e-05
5.99521e-05
6.1741e-05
6.34378e-05
6.50139e-05
6.64261e-05
6.76227e-05
6.84947e-05
6.89096e-05
6.87412e-05
6.78539e-05
6.61072e-05
6.34256e-05
5.98509e-05
5.55722e-05
5.08712e-05
4.61352e-05
4.17347e-05
3.79564e-05
3.48724e-05
3.24836e-05
3.06022e-05
2.91118e-05
2.81213e-05
2.74293e-05
2.6997e-05
2.66382e-05
2.64445e-05
2.61898e-05
2.61061e-05
2.5857e-05
2.58167e-05
2.55698e-05
2.55912e-05
4.0586e-05
4.17761e-05
4.13466e-05
4.08775e-05
4.05342e-05
4.01191e-05
3.9782e-05
3.92761e-05
3.87324e-05
3.78316e-05
3.68663e-05
3.53353e-05
3.39016e-05
3.18044e-05
2.97771e-05
2.69512e-05
2.22079e-05
1.73637e-05
3.44516e-05
5.52062e-05
6.07228e-05
5.82197e-05
4.69887e-05
4.11672e-05
4.31053e-05
4.58065e-05
4.85106e-05
5.08811e-05
5.3326e-05
5.50983e-05
5.60961e-05
5.66369e-05
5.68404e-05
5.68579e-05
5.67446e-05
5.6641e-05
5.64626e-05
5.62734e-05
5.59851e-05
5.56676e-05
5.53129e-05
5.49979e-05
5.45886e-05
5.41925e-05
5.37087e-05
5.32636e-05
5.27374e-05
5.20998e-05
5.15143e-05
5.10331e-05
5.04842e-05
4.98362e-05
4.87682e-05
4.75722e-05
4.68588e-05
4.60776e-05
4.30019e-05
4.01297e-05
3.79875e-05
3.26024e-05
2.16568e-05
1.21219e-05
6.71442e-06
4.18974e-06
3.31587e-06
2.55021e-06
1.64056e-06
1.10548e-06
8.89747e-07
8.4311e-07
8.64369e-07
9.15955e-07
9.96824e-07
1.09934e-06
1.218e-06
1.35288e-06
1.51386e-06
1.69714e-06
1.90721e-06
2.14197e-06
2.4017e-06
2.68736e-06
3.00268e-06
3.34841e-06
3.72435e-06
4.13005e-06
4.5655e-06
5.03037e-06
5.5254e-06
6.04736e-06
6.59678e-06
7.17498e-06
7.77899e-06
8.41125e-06
9.0715e-06
9.74686e-06
1.04329e-05
1.11239e-05
1.1841e-05
1.25765e-05
1.33131e-05
1.40443e-05
1.47735e-05
1.55055e-05
1.62479e-05
1.70035e-05
1.77683e-05
1.85355e-05
1.92984e-05
2.00612e-05
2.08314e-05
2.16152e-05
2.24235e-05
2.32591e-05
2.41189e-05
2.49985e-05
2.58872e-05
2.67871e-05
2.77212e-05
2.87005e-05
2.97014e-05
3.0696e-05
3.16847e-05
3.26841e-05
3.36857e-05
3.46875e-05
3.56861e-05
3.67057e-05
3.7752e-05
3.88271e-05
3.99427e-05
4.11745e-05
4.26948e-05
4.45101e-05
4.61807e-05
4.77824e-05
4.95848e-05
5.14057e-05
5.24663e-05
5.3293e-05
5.47382e-05
5.65645e-05
5.81947e-05
5.98451e-05
6.15029e-05
6.3187e-05
6.49126e-05
6.66909e-05
6.85204e-05
7.04087e-05
7.23639e-05
7.43972e-05
7.65333e-05
7.89047e-05
8.173e-05
8.49543e-05
8.83859e-05
9.17548e-05
9.48248e-05
9.76858e-05
0.000100525
0.000103267
0.000105854
0.000108186
0.000110134
0.000111469
0.000111939
0.000111349
0.000109549
0.000106435
0.000102001
9.63558e-05
8.97406e-05
8.24638e-05
7.498e-05
6.77684e-05
6.12874e-05
5.57242e-05
5.12106e-05
4.77092e-05
4.47603e-05
4.26038e-05
4.11013e-05
4.01236e-05
3.93888e-05
3.89536e-05
3.85026e-05
3.83168e-05
3.79278e-05
3.78509e-05
3.74863e-05
3.7506e-05
5.6421e-05
5.81725e-05
5.76482e-05
5.70531e-05
5.66195e-05
5.60971e-05
5.56802e-05
5.50608e-05
5.44047e-05
5.33353e-05
5.21769e-05
5.03863e-05
4.86786e-05
4.62403e-05
4.40014e-05
4.11981e-05
3.53638e-05
3.07918e-05
5.87322e-05
8.84278e-05
9.62045e-05
9.28933e-05
7.81296e-05
6.00311e-05
5.84725e-05
6.00139e-05
6.2712e-05
6.55017e-05
6.85343e-05
7.11731e-05
7.29362e-05
7.40539e-05
7.47078e-05
7.49779e-05
7.50433e-05
7.5038e-05
7.49839e-05
7.48449e-05
7.46416e-05
7.43115e-05
7.39943e-05
7.36805e-05
7.33146e-05
7.2882e-05
7.24044e-05
7.18796e-05
7.13553e-05
7.05513e-05
6.9863e-05
6.92814e-05
6.86967e-05
6.79336e-05
6.66161e-05
6.49047e-05
6.37313e-05
6.28025e-05
5.85337e-05
5.51441e-05
5.48074e-05
5.28581e-05
4.04798e-05
2.46443e-05
1.47537e-05
9.70703e-06
7.88174e-06
6.24738e-06
4.16271e-06
2.86657e-06
2.32551e-06
2.20325e-06
2.25173e-06
2.37304e-06
2.5652e-06
2.8083e-06
3.08672e-06
3.39645e-06
3.75888e-06
4.16323e-06
4.61896e-06
5.12067e-06
5.66574e-06
6.25363e-06
6.89087e-06
7.57764e-06
8.31216e-06
9.09222e-06
9.91661e-06
1.07836e-05
1.16934e-05
1.26386e-05
1.36203e-05
1.46415e-05
1.5697e-05
1.67926e-05
1.79271e-05
1.90765e-05
2.02335e-05
2.13865e-05
2.25799e-05
2.37951e-05
2.50039e-05
2.61936e-05
2.73716e-05
2.85469e-05
2.97333e-05
3.09358e-05
3.2148e-05
3.33575e-05
3.45537e-05
3.5744e-05
3.6942e-05
3.81582e-05
3.9411e-05
4.07047e-05
4.20323e-05
4.33869e-05
4.47507e-05
4.61277e-05
4.75545e-05
4.90461e-05
5.05639e-05
5.20641e-05
5.35475e-05
5.50389e-05
5.65265e-05
5.80062e-05
5.94752e-05
6.09695e-05
6.24999e-05
6.40714e-05
6.57076e-05
6.75315e-05
6.97818e-05
7.24509e-05
7.48951e-05
7.724e-05
7.98263e-05
8.24357e-05
8.39441e-05
8.51532e-05
8.72127e-05
8.98362e-05
9.21614e-05
9.45139e-05
9.688e-05
9.92719e-05
0.000101724
0.000104246
0.000106836
0.000109513
0.000112287
0.000115176
0.000118215
0.000121583
0.000125587
0.000130152
0.000135022
0.000139833
0.000144268
0.000148452
0.000152637
0.000156701
0.000160546
0.000163997
0.000166827
0.000168673
0.000169154
0.000167995
0.000165023
0.000160168
0.000153513
0.000145266
0.000135762
0.000125355
0.000114559
0.000103928
9.4051e-05
8.52096e-05
7.77046e-05
7.16341e-05
6.69429e-05
6.28822e-05
5.98478e-05
5.77528e-05
5.62525e-05
5.53112e-05
5.44923e-05
5.40858e-05
5.3472e-05
5.33171e-05
5.27797e-05
5.27852e-05
7.60206e-05
7.84888e-05
7.78996e-05
7.7162e-05
7.66327e-05
7.59979e-05
7.55006e-05
7.47717e-05
7.40087e-05
7.28004e-05
7.1459e-05
6.94783e-05
6.75085e-05
6.48207e-05
6.21549e-05
5.95714e-05
5.26593e-05
4.9035e-05
9.10947e-05
0.000132885
0.000144227
0.000140692
0.000119844
9.0481e-05
7.98123e-05
7.74801e-05
7.91672e-05
8.20077e-05
8.52569e-05
8.88471e-05
9.16282e-05
9.35882e-05
9.49656e-05
9.56835e-05
9.60879e-05
9.62744e-05
9.64571e-05
9.64326e-05
9.64111e-05
9.61103e-05
9.58969e-05
9.5613e-05
9.53744e-05
9.49228e-05
9.4529e-05
9.3909e-05
9.34618e-05
9.24622e-05
9.16759e-05
9.09231e-05
9.03237e-05
8.94029e-05
8.78696e-05
8.55017e-05
8.36216e-05
8.23476e-05
7.65717e-05
7.10562e-05
7.3292e-05
7.65076e-05
6.70674e-05
4.45854e-05
2.85311e-05
1.98384e-05
1.66019e-05
1.36579e-05
9.54626e-06
6.80645e-06
5.60487e-06
5.30795e-06
5.38946e-06
5.62032e-06
6.00586e-06
6.49013e-06
7.04338e-06
7.64296e-06
8.33194e-06
9.08709e-06
9.93012e-06
1.08498e-05
1.1835e-05
1.28821e-05
1.40027e-05
1.51967e-05
1.64594e-05
1.77856e-05
1.91717e-05
2.06138e-05
2.21106e-05
2.36488e-05
2.52314e-05
2.68648e-05
2.85409e-05
3.02701e-05
3.2049e-05
3.38379e-05
3.56263e-05
3.73932e-05
3.9219e-05
4.10665e-05
4.28936e-05
4.46792e-05
4.64386e-05
4.8186e-05
4.9944e-05
5.17195e-05
5.35021e-05
5.5273e-05
5.70169e-05
5.87463e-05
6.0483e-05
6.22427e-05
6.40527e-05
6.59178e-05
6.78267e-05
6.97684e-05
7.17184e-05
7.36823e-05
7.57129e-05
7.78283e-05
7.99741e-05
8.2084e-05
8.41627e-05
8.62436e-05
8.83128e-05
9.03627e-05
9.2395e-05
9.44591e-05
9.65764e-05
9.87626e-05
0.000101046
0.000103584
0.000106737
0.000110454
0.000113852
0.000117112
0.000120632
0.000124197
0.000126255
0.000127963
0.000130773
0.000134383
0.000137566
0.000140801
0.000144042
0.00014732
0.000150684
0.000154131
0.000157678
0.000161348
0.000165157
0.00016913
0.000173316
0.000177946
0.000183435
0.000189689
0.000196365
0.000202989
0.000209137
0.000214969
0.000220811
0.00022648
0.000231822
0.000236575
0.000240407
0.000242806
0.000243255
0.000241391
0.000236995
0.000230021
0.000220637
0.000209181
0.000196116
0.000181873
0.000167057
0.000152295
0.000138293
0.000125383
0.000114021
0.000104406
9.67487e-05
9.06559e-05
8.54631e-05
8.1438e-05
7.84731e-05
7.65132e-05
7.49943e-05
7.41297e-05
7.31401e-05
7.28182e-05
7.20192e-05
7.19815e-05
0.000100186
0.000103278
0.000102654
0.000101763
0.000101134
0.000100384
9.98059e-05
9.89739e-05
9.81064e-05
9.67946e-05
9.527e-05
9.31765e-05
9.09406e-05
8.81441e-05
8.48486e-05
8.25177e-05
7.45352e-05
7.23604e-05
0.000131984
0.000190435
0.00020743
0.000204554
0.000174588
0.000141318
0.000112233
0.000100739
9.89823e-05
0.00010089
0.000103502
0.000107852
0.000111802
0.00011486
0.000117276
0.000118698
0.000119667
0.000120184
0.000120759
0.000120944
0.000121234
0.00012103
0.000121013
0.000120792
0.000120794
0.000120341
0.000120145
0.000119402
0.000119139
0.000117907
0.000117064
0.000116012
0.000115439
0.000114238
0.000112572
0.000109388
0.000106609
0.000104693
9.75481e-05
8.82405e-05
9.24819e-05
0.000102177
0.000100696
7.34978e-05
4.97786e-05
3.62435e-05
3.11536e-05
2.65753e-05
1.94936e-05
1.44611e-05
1.21344e-05
1.14854e-05
1.15606e-05
1.19104e-05
1.25691e-05
1.33922e-05
1.4336e-05
1.53428e-05
1.64889e-05
1.77333e-05
1.91218e-05
2.0631e-05
2.22315e-05
2.39139e-05
2.56989e-05
2.75849e-05
2.95621e-05
3.16205e-05
3.37523e-05
3.59505e-05
3.82119e-05
4.0516e-05
4.28698e-05
4.52851e-05
4.77501e-05
5.02811e-05
5.28719e-05
5.54625e-05
5.80392e-05
6.05719e-05
6.31829e-05
6.5813e-05
6.8403e-05
7.09237e-05
7.33986e-05
7.58498e-05
7.83086e-05
8.07845e-05
8.32633e-05
8.5718e-05
8.81303e-05
9.0517e-05
9.29102e-05
9.53326e-05
9.78188e-05
0.000100378
0.000102992
0.000105644
0.000108305
0.000110979
0.00011374
0.000116605
0.000119507
0.000122348
0.000125148
0.000127932
0.000130702
0.000133434
0.000136149
0.000138904
0.000141744
0.000144681
0.000147751
0.000151193
0.000155491
0.000160507
0.000165095
0.000169487
0.000174167
0.000178878
0.000181632
0.000183965
0.000187751
0.000192583