/*--------------------------------*- C++ -*----------------------------------*\
| =========                 |                                                 |
| \\      /  F ield         | OpenFOAM: The Open Source CFD Toolbox           |
|  \\    /   O peration     | Version:  2212                                  |
|   \\  /    A nd           | Website:  www.openfoam.com                      |
|    \\/     M anipulation  |                                                 |
\*---------------------------------------------------------------------------*/
FoamFile
{
    version     2.0;
    format      ascii;
    arch        "LSB;label=32;scalar=64";
    class       volScalarField;
    location    "5000";
    object      omega;
}
// * * * * * * * * * * * * * * * * * * * * * * * * * * * * * * * * * * * * * //

dimensions      [0 0 -1 0 0 0 0];

internalField   nonuniform List<scalar> 
10368
(
2.7246e+07
2.72461e+07
2.72461e+07
2.72461e+07
2.72461e+07
2.72461e+07
2.72461e+07
2.72461e+07
2.72461e+07
2.72461e+07
2.7246e+07
2.7246e+07
2.72459e+07
2.72459e+07
2.72458e+07
2.72474e+07
2.73324e+07
2.75815e+07
2.4768e+07
2.42951e+07
2.56319e+07
2.72674e+07
2.83458e+07
2.88033e+07
2.9372e+07
3.00959e+07
3.08156e+07
3.15473e+07
3.22731e+07
3.29583e+07
3.35814e+07
3.41479e+07
3.46674e+07
3.51586e+07
3.56272e+07
3.60713e+07
3.64892e+07
3.68876e+07
3.72744e+07
3.76401e+07
3.79882e+07
3.82926e+07
3.85726e+07
3.88227e+07
3.9041e+07
3.92405e+07
3.93958e+07
3.95509e+07
3.96693e+07
3.97396e+07
3.97715e+07
3.97653e+07
3.97506e+07
3.97251e+07
3.96285e+07
3.94523e+07
3.93985e+07
3.95707e+07
4.00335e+07
4.09556e+07
4.26121e+07
4.48451e+07
4.669e+07
4.81199e+07
4.9147e+07
4.97032e+07
4.97421e+07
4.9397e+07
4.88721e+07
4.79461e+07
4.67615e+07
4.57985e+07
4.5049e+07
4.42291e+07
4.32538e+07
4.21348e+07
4.09807e+07
3.99307e+07
3.8967e+07
3.80769e+07
3.71708e+07
3.6287e+07
3.54334e+07
3.4628e+07
3.38724e+07
3.31654e+07
3.25135e+07
3.19052e+07
3.13535e+07
3.08397e+07
3.03824e+07
2.99733e+07
2.96114e+07
2.92952e+07
2.90188e+07
2.87728e+07
2.85576e+07
2.8371e+07
2.821e+07
2.80714e+07
2.79501e+07
2.78451e+07
2.77547e+07
2.76762e+07
2.76071e+07
2.75449e+07
2.74887e+07
2.74378e+07
2.7393e+07
2.73526e+07
2.73162e+07
2.72823e+07
2.72493e+07
2.72179e+07
2.71886e+07
2.71631e+07
2.71448e+07
2.71329e+07
2.71259e+07
2.71227e+07
2.71318e+07
2.71567e+07
2.72015e+07
2.72611e+07
2.73444e+07
2.7446e+07
2.75722e+07
2.77093e+07
2.78592e+07
2.801e+07
2.81541e+07
2.82485e+07
2.8266e+07
2.82506e+07
2.82473e+07
2.82346e+07
2.81785e+07
2.81426e+07
2.82798e+07
2.84269e+07
2.84269e+07
2.84268e+07
2.84269e+07
2.84269e+07
2.84269e+07
2.84269e+07
2.84269e+07
2.84269e+07
2.84269e+07
2.8427e+07
2.8427e+07
2.8427e+07
2.84167e+07
2.83298e+07
2.81198e+07
2.78302e+07
2.75367e+07
2.7326e+07
2.72492e+07
2.72458e+07
2.72458e+07
2.72458e+07
2.72458e+07
2.72459e+07
2.72459e+07
2.72459e+07
2.72459e+07
2.72459e+07
2.72459e+07
2.72459e+07
2.7246e+07
2.7246e+07
2.7246e+07
2.7246e+07
2.7246e+07
2.7246e+07
2.72461e+07
2.72461e+07
2.72461e+07
2.72461e+07
2.72461e+07
2.72461e+07
2.72461e+07
2.72461e+07
2.72461e+07
2.72461e+07
2.72461e+07
2.72461e+07
2.72461e+07
2.7246e+07
2.7246e+07
2.7246e+07
4.64219e+06
4.63947e+06
4.63928e+06
4.63902e+06
4.63885e+06
4.63863e+06
4.63842e+06
4.63809e+06
4.63769e+06
4.63706e+06
4.63634e+06
4.63531e+06
4.63433e+06
4.63311e+06
4.63213e+06
4.63143e+06
4.64552e+06
4.68777e+06
4.20945e+06
4.12931e+06
4.35891e+06
4.64409e+06
4.83769e+06
4.92332e+06
5.02362e+06
5.14982e+06
5.27454e+06
5.39898e+06
5.52096e+06
5.63616e+06
5.74087e+06
5.83634e+06
5.92399e+06
6.00723e+06
6.08635e+06
6.16145e+06
6.23176e+06
6.29903e+06
6.36394e+06
6.42555e+06
6.48366e+06
6.53465e+06
6.58121e+06
6.62289e+06
6.65889e+06
6.69181e+06
6.71697e+06
6.74213e+06
6.76053e+06
6.77089e+06
6.77456e+06
6.77182e+06
6.76741e+06
6.76084e+06
6.74205e+06
6.71026e+06
6.69963e+06
6.7271e+06
6.80403e+06
6.95931e+06
7.24011e+06
7.61951e+06
7.93328e+06
8.17655e+06
8.35128e+06
8.446e+06
8.45293e+06
8.39448e+06
8.30547e+06
8.14835e+06
7.94709e+06
7.78333e+06
7.65596e+06
7.51671e+06
7.35107e+06
7.16098e+06
6.96484e+06
6.78637e+06
6.62256e+06
6.47129e+06
6.31732e+06
6.1671e+06
6.02204e+06
5.88516e+06
5.75676e+06
5.63661e+06
5.5258e+06
5.42241e+06
5.32865e+06
5.24134e+06
5.16362e+06
5.09409e+06
5.03257e+06
4.97885e+06
4.93188e+06
4.89007e+06
4.8535e+06
4.82179e+06
4.79443e+06
4.77088e+06
4.75028e+06
4.73245e+06
4.7171e+06
4.70377e+06
4.69203e+06
4.68149e+06
4.67195e+06
4.66332e+06
4.65573e+06
4.64889e+06
4.64271e+06
4.63699e+06
4.6314e+06
4.62609e+06
4.62115e+06
4.61684e+06
4.61377e+06
4.61177e+06
4.61062e+06
4.61011e+06
4.61169e+06
4.61595e+06
4.6236e+06
4.63377e+06
4.64796e+06
4.66527e+06
4.68676e+06
4.71009e+06
4.73561e+06
4.76128e+06
4.78584e+06
4.80193e+06
4.80495e+06
4.80238e+06
4.80187e+06
4.79978e+06
4.79028e+06
4.7842e+06
4.80756e+06
4.83261e+06
4.83265e+06
4.83267e+06
4.8327e+06
4.83273e+06
4.83275e+06
4.83277e+06
4.83278e+06
4.83279e+06
4.83279e+06
4.83278e+06
4.83277e+06
4.83274e+06
4.83093e+06
4.81611e+06
4.78035e+06
4.73105e+06
4.68106e+06
4.64512e+06
4.6319e+06
4.63113e+06
4.63091e+06
4.63067e+06
4.63043e+06
4.63021e+06
4.63002e+06
4.6299e+06
4.62988e+06
4.62998e+06
4.63024e+06
4.63067e+06
4.63127e+06
4.632e+06
4.63281e+06
4.63365e+06
4.63445e+06
4.63518e+06
4.6358e+06
4.63632e+06
4.63672e+06
4.63705e+06
4.63726e+06
4.63744e+06
4.63754e+06
4.63763e+06
4.63764e+06
4.63768e+06
4.63764e+06
4.63764e+06
4.63757e+06
4.63755e+06
4.63745e+06
4.63747e+06
1.55345e+06
1.54519e+06
1.54467e+06
1.54396e+06
1.54348e+06
1.54288e+06
1.54231e+06
1.54143e+06
1.54034e+06
1.53859e+06
1.53663e+06
1.53374e+06
1.53097e+06
1.52749e+06
1.5246e+06
1.52171e+06
1.52525e+06
1.53806e+06
1.38053e+06
1.35541e+06
1.43668e+06
1.5467e+06
1.63342e+06
1.67909e+06
1.72077e+06
1.7693e+06
1.81552e+06
1.85724e+06
1.89492e+06
1.93041e+06
1.96245e+06
1.9922e+06
2.01965e+06
2.04656e+06
2.07149e+06
2.09544e+06
2.11709e+06
2.1383e+06
2.15789e+06
2.17701e+06
2.19385e+06
2.209e+06
2.22203e+06
2.23397e+06
2.24332e+06
2.25198e+06
2.25747e+06
2.26308e+06
2.26522e+06
2.26496e+06
2.26207e+06
2.25715e+06
2.25108e+06
2.24337e+06
2.23115e+06
2.21567e+06
2.20753e+06
2.21159e+06
2.23364e+06
2.28307e+06
2.37469e+06
2.4991e+06
2.6021e+06
2.68197e+06
2.73926e+06
2.77026e+06
2.77262e+06
2.75356e+06
2.72446e+06
2.673e+06
2.60702e+06
2.5533e+06
2.51151e+06
2.46585e+06
2.41154e+06
2.34922e+06
2.28489e+06
2.22635e+06
2.17262e+06
2.123e+06
2.0725e+06
2.02323e+06
1.97565e+06
1.93077e+06
1.88866e+06
1.84926e+06
1.81292e+06
1.77902e+06
1.74827e+06
1.71965e+06
1.69417e+06
1.67138e+06
1.65123e+06
1.63363e+06
1.61825e+06
1.60456e+06
1.5926e+06
1.58223e+06
1.5733e+06
1.5656e+06
1.55888e+06
1.55308e+06
1.54808e+06
1.54376e+06
1.53996e+06
1.53656e+06
1.53348e+06
1.53071e+06
1.52827e+06
1.52609e+06
1.52413e+06
1.52233e+06
1.52057e+06
1.5189e+06
1.51736e+06
1.51602e+06
1.51509e+06
1.51451e+06
1.51421e+06
1.51412e+06
1.51471e+06
1.51617e+06
1.51875e+06
1.52215e+06
1.52687e+06
1.53262e+06
1.53976e+06
1.5475e+06
1.55597e+06
1.56452e+06
1.57272e+06
1.57819e+06
1.5794e+06
1.57871e+06
1.57866e+06
1.57814e+06
1.57513e+06
1.5731e+06
1.58075e+06
1.58912e+06
1.58932e+06
1.58937e+06
1.58946e+06
1.58952e+06
1.58957e+06
1.58961e+06
1.58963e+06
1.58963e+06
1.58961e+06
1.58956e+06
1.58949e+06
1.58938e+06
1.58865e+06
1.58362e+06
1.57169e+06
1.55527e+06
1.53858e+06
1.52642e+06
1.52164e+06
1.52089e+06
1.52025e+06
1.51959e+06
1.51893e+06
1.51832e+06
1.51783e+06
1.51752e+06
1.51748e+06
1.5178e+06
1.51855e+06
1.51979e+06
1.52151e+06
1.52362e+06
1.52597e+06
1.52842e+06
1.53077e+06
1.5329e+06
1.53472e+06
1.53626e+06
1.53744e+06
1.53839e+06
1.53904e+06
1.53956e+06
1.53984e+06
1.54011e+06
1.54016e+06
1.54027e+06
1.54016e+06
1.54018e+06
1.53997e+06
1.53995e+06
1.53968e+06
1.53972e+06
742651
731211
730345
729158
728349
727327
726364
724857
722987
719955
716515
711323
706256
699666
694020
687987
687412
690971
619276
610114
655712
728194
797674
838685
867582
896859
923129
943582
958951
973128
985669
997838
1.00919e+06
1.02122e+06
1.0317e+06
1.04208e+06
1.05061e+06
1.05951e+06
1.06675e+06
1.07442e+06
1.07978e+06
1.08503e+06
1.08852e+06
1.09206e+06
1.09355e+06
1.09507e+06
1.09432e+06
1.0938e+06
1.09006e+06
1.08537e+06
1.07877e+06
1.07122e+06
1.06221e+06
1.0509e+06
1.03631e+06
1.02111e+06
1.00913e+06
1.00137e+06
1.0051e+06
1.02532e+06
1.06616e+06
1.12212e+06
1.16843e+06
1.20434e+06
1.22995e+06
1.24369e+06
1.24479e+06
1.23633e+06
1.22333e+06
1.20029e+06
1.1707e+06
1.1466e+06
1.12785e+06
1.10736e+06
1.08299e+06
1.05503e+06
1.02617e+06
999904
975799
953533
930877
908776
887435
867303
848421
830754
814462
799269
785493
772675
761275
751085
742081
734230
727373
721280
715964
711374
707432
704045
701096
698564
696402
694549
692936
691501
690216
689067
688078
687207
686444
685755
685093
684472
683906
683431
683138
683011
683010
683090
683466
684231
685495
687129
689358
692052
695381
699002
702969
706997
710919
713654
714534
714461
714620
714608
713399
712443
715861
719800
720142
720225
720344
720421
720474
720496
720486
720436
720343
720199
720001
719732
719127
716535
710782
702942
694890
688772
685876
684699
683509
682286
681089
680012
679154
678645
678630
679266
680700
683041
686298
690341
694895
699653
704244
708425
711981
714978
717291
719133
720390
721401
721959
722475
722586
722811
722636
722683
722328
722285
721819
721901
436529
429576
428620
427287
426375
425216
424117
422380
420201
416600
412428
405900
399276
390167
381885
372303
368721
367054
327661
325565
359962
419605
482323
518357
540717
560896
578276
590787
598590
605487
611481
617642
623481
630230
635805
641499
645705
650425
653702
657593
659454
661572
662231
663222
662529
662037
659723
657713
652738
647169
639913
632008
622541
610288
594312
577819
562052
544844
536565
543880
565335
595366
620101
639207
652643
659689
660278
655888
649074
636902
621244
608499
598572
587719
574809
560004
544723
530819
518063
506275
494284
482591
471303
460658
450678
441344
432741
424725
417461
410713
404722
399378
394671
390579
387014
383859
381124
378781
376789
375089
373624
372388
371355
370495
369768
369139
368591
368118
367735
367423
367176
366976
366795
366637
366506
366419
366427
366527
366690
366885
367222
367758
368557
369552
370862
372429
374346
376440
378741
381110
383469
385234
386094
386275
386540
386738
386182
385589
387386
389650
390040
390093
390181
390208
390198
390139
390030
389859
389626
389315
388924
388431
387692
385832
382219
377411
372403
368327
365877
364272
362611
360940
359341
357935
356848
356243
356304
357238
359261
362556
367172
372958
379524
386416
393081
399148
404300
408618
411946
414575
416390
417823
418645
419370
419578
419897
419730
419807
419412
419367
418832
418933
289455
286213
285391
284225
283429
282411
281438
279891
277932
274645
270782
264543
258001
248474
239186
227169
221158
215310
190514
192167
220526
268349
323649
353772
371858
386710
399124
407929
412783
416712
420058
423682
427166
431508
435027
438707
441248
444249
446064
448466
449245
450306
450220
450501
449469
448665
446442
444593
440320
435550
429389
422805
415029
404778
390701
375654
360109
338019
319604
317863
329821
347984
362769
374048
381729
385557
385915
383459
379561
372505
363399
356002
350231
343908
336386
327768
318876
310791
303378
296523
289552
282760
276208
270033
264249
258845
253870
249242
245056
241179
237752
234708
232045
229746
227755
226009
224516
223262
222217
221342
220607
220013
219546
219190
218916
218703
218537
218417
218355
218343
218374
218440
218519
218608
218708
218826
218997
219220
219472
219726
220044
220472
221051
221742
222619
223655
224911
226290
227811
229404
231026
232319
233132
233323
233566
233772
233387
232889
233927
235381
235666
235606
235582
235492
235357
235167
234919
234599
234213
233735
233175
232504
231639
230068
227416
224011
220443
217374
215218
213527
211789
210074
208462
207072
206031
205500
205664
206742
208962
212527
217510
223784
230975
238624
246134
253066
259026
264051
267963
271050
273234
274929
275950
276803
277125
277507
277422
277529
277212
277183
276725
276822
206011
203896
203245
202312
201676
200862
200081
198833
197248
194559
191388
186153
180589
172170
163608
151358
144103
134879
117468
120935
143347
178470
225794
252225
268123
280056
289654
296515
300068
302517
304480
306709
308870
311807
314185
316740
318411
320476
321616
323272
323679
324312
324057
324144
323233
322551
320777
319439
316266
312660
307969
302948
297205
289669
278723
266602
254157
232998
208343
198206
203817
215748
225426
232626
237218
239284
239552
238163
235842
231531
225936
221414
217874
213980
209341
204036
198569
193604
189059
184849
180571
176407
172396
168622
165091
161799
158775
155970
153442
151114
149072
147274
145720
144394
143259
142281
141468
140811
140285
139861
139527
139286
139132
139052
139027
139038
139077
139143
139249
139391
139563
139758
139958
140155
140350
140546
140768
141019
141273
141509
141768
142093
142508
142994
143595
144306
145167
146118
147172
148290
149444
150401
151021
151068
151193
151281
150869
150399
151053
152037
152136
151964
151831
151646
151424
151155
150837
150460
150027
149517
148944
148283
147480
146224
144284
141870
139354
137143
135489
134115
132714
131342
130063
128974
128184
127830
128078
129108
131098
134198
138473
143873
150172
157067
164079
170788
176754
181917
186044
189354
191782
193659
194845
195798
196236
196673
196689
196831
196623
196618
196278
196364
152546
150683
150165
149435
148937
148302
147693
146719
145486
143376
140905
136765
132326
125397
118253
107264
100089
88956.8
75800.1
79759.5
96370.4
120224
158359
183010
198008
208506
216558
222374
225432
227139
228323
229707
231036
233052
234707
236550
237698
239181
239935
241139
241386
241802
241516
241541
240799
240288
238920
238025
235782
233170
229712
226063
222082
217040
209156
199998
191173
173955
148125
131100
130948
138759
145541
150466
153270
154307
154585
153868
152492
149796
146258
143426
141196
138724
135768
132399
128935
125797
122928
120265
117559
114931
112406
110033
107818
105758
103873
102132
100571
99146.6
97912.1
96839.2
95928.1
95163.8
94520.3
93980.9
93551.5
93230.7
92987.8
92806.7
92683.4
92625.5
92626.7
92679.1
92764.3
92869.4
92987.2
93121.8
93283
93469.4
93675
93892.9
94106.5
94308.3
94498.5
94681.6
94876.2
95084.7
95282.5
95452.8
95629.2
95851.3
96133.8
96465
96875.9
97368.9
97968.5
98637.5
99380.2
100176
101000
101708
102079
102007
102039
102028
101615
101237
101711
102416
102395
102210
102065
101887
101686
101453
101189
100885
100542
100152
99719.7
99227.7
98641.7
97767.7
96459.6
94857.1
93197.6
91735.5
90625.9
89690.6
88736
87801.1
86930.4
86197.1
85686.7
85507.5
85786.2
86652.8
88224
90589.2
93791.3
97826.2
102599
107975
113667
119375
124701
129515
133528
136856
139360
141334
142644
143680
144226
144716
144828
145009
144898
144920
144684
144762
115933
114035
113606
113030
112637
112137
111660
110899
109944
108294
106388
103145
99701.8
94218.8
88517.9
79277.5
72893.6
61569.4
51303.2
54912.9
66698.7
82257.8
109553
133105
147794
157751
165030
170289
173265
174645
175397
176250
177030
178405
179565
180922
181729
182819
183333
184232
184404
184700
184429
184436
183846
183489
182445
181883
180359
178540
176050
173475
170816
167695
162414
155861
150166
137537
113779
92976
87410
91542.7
96264.2
99789.3
101504
101938
102303
102063
101305
99628.4
97375.7
95606.4
94192.4
92606.5
90694.5
88527
86304
84298.6
82467.2
80756.8
79019.3
77337.4
75723.8
74209.8
72799.1
71490.3
70296.4
69198.9
68221.4
67340
66586.5
65941
65403.5
64958.7
64589.8
64291.5
64067.5
63921.2
63815.6
63747
63717.5
63734.9
63793.8
63887.3
63999.2
64120.3
64246
64382.8
64539.1
64713.7
64899.9
65091.4
65273.8
65441.1
65595
65740.7
65892.8
66052.5
66197.2
66316.6
66439
66599.2
66804.3
67047.9
67350.8
67718.3
68164.6
68664.2
69217.3
69811
70423.3
70965.6
71159
71070.8
71083.9
71053.2
70725.2
70496
70891.5
71429.5
71389.3
71267.9
71179.7
71074.7
70956.6
70819.9
70664
70481.9
70276
70043.7
69783.7
69484.9
69123.1
68574.7
67744.7
66726
65673.1
64750.5
64056.6
63474.3
62876.7
62289.7
61744.8
61295
61002.9
60946.1
61214
61894.3
63062
64769
67039.6
69879.4
73251
77111.4
81320.7
85720.3
90031.2
94130.3
97727.1
100813
103232
105226
106627
107740
108388
108940
109139
109365
109333
109384
109231
109305
89770.4
87806.8
87434.3
86976.1
86660
86260.2
85884.4
85284
84543.6
83249.5
81784.7
79249.3
76612.1
72334.7
67933.4
60426.3
55031.1
44696.2
36586.3
39427.7
47640.2
57730
75337.8
96176.6
110527
120416
127385
132359
135461
136758
137296
137822
138237
139155
139960
140968
141543
142356
142710
143391
143526
143750
143510
143514
143048
142815
142021
141693
140697
139491
137744
135986
134276
132537
129281
124875
121651
113267
92918.5
71153
61357.7
62006.5
64806.7
67231.4
68224.8
68313.4
68787.8
68905.3
68579
67583.2
66176.9
65105.8
64216.9
63205.9
61966.8
60573.5
59147.3
57866.3
56692.1
55582.6
54455.3
53367.1
52323.6
51343.6
50430.5
49583.7
48813.3
48107.9
47484
46929.5
46461.8
46066.8
45743.8
45478.6
45261.8
45095.2
44979.8
44922.7
44882.3
44866.2
44878.8
44927
45004.9
45106.5
45218.2
45333.9
45451.5
45577.9
45719.8
45875.4
46038.1
46202.3
46356.5
46497
46626.6
46750.6
46880.2
47014.8
47136.4
47239.4
47347.7
47488.3
47664.5
47872.5
48126.2
48430.9
48794.1
49197.8
49640.2
50112.3
50596.2
51018.7
51129.6
51082.3
51116.9
51108.9
50894.5
50801.5
51151.7
51579.9
51564.2
51515.1
51491.6
51458.9
51419.4
51367.5
51302.8
51220.9
51126.5
51014.9
50884.6
50728.1
50527.7
50202.1
49687.1
49045.6
48381.9
47807.1
47387
47042.6
46687
46337.6
46016.4
45760.7
45614.2
45629.7
45867.6
46386.6
47236.6
48449.7
50039
52008.3
54338.4
57018.7
59985.5
63172.3
66416.6
69646.4
72630.5
75312.6
77475.5
79359.7
80775.9
81934.4
82668.1
83280.6
83558.2
83833.7
83866.8
83950.3
83861.5
83936.4
70487.8
68560.3
68226.4
67857
67598.5
67274.1
66974.6
66497.5
65922
64903.9
63781
61801.4
59801.2
56491.7
53182.3
47222.9
42787.1
33930.9
27429.7
29422
35126.9
41718.1
52563.8
68802.4
82331.7
92299.7
99199.3
104026
107329
108678
109143
109482
109659
110249
110796
111545
111956
112566
112813
113332
113446
113628
113423
113432
113065
112926
112327
112157
111538
110795
109609
108464
107416
106622
104855
102139
100725
95999.4
79424.8
58325.4
45813.5
43555.7
44545.7
45908.5
46350.6
46223.7
46729.8
47078.8
47054.1
46526.6
45696.1
45089.8
44539.8
43904.7
43108.6
42221.2
41311.3
40495
39736.9
39006.4
38265
37552
36867.8
36223.6
35623.1
35067.1
34563.6
34105.9
33705.9
33358
33070.2
32832.2
32643
32490.4
32370.4
32287.5
32240.8
32239.3
32240.5
32259.7
32301
32369.7
32459.5
32565.2
32675.9
32788.5
32902.4
33023.7
33157.4
33300.8
33448.2
33595
33732.4
33858.9
33978.1
34094.2
34216.2
34341.7
34457.6
34561.5
34673.2
34811.7
34978.5
35171.3
35399.7
35667.7
35979.2
36321.1
36690.7
37081.7
37476.6
37804
37886.9
37883.6
37940.4
37958.5
37837.8
37837
38147
38493.3
38503.9
38504.9
38525.1
38540.1
38551.6
38553.4
38546.6
38529.1
38504.5
38468.1
38418.6
38350.9
38251.7
38065.9
37748.2
37342.5
36922.2
36565.3
36318.1
36125.6
35925.8
35730.1
35553.6
35422.2
35365.8
35419.2
35623.1
36016.6
36634.1
37496.8
38611.7
39980.1
41589.1
43436.1
45490.4
47729.6
50066.5
52475.5
54800.6
56996.3
58846.4
60494.8
61818.5
62955.6
63736.2
64395
64739.7
65064.5
65152.7
65270.9
65232.9
65313
55880.4
54168.4
53867.1
53565.4
53351.3
53085.1
52844.8
52463.6
52017
51216.2
50360.1
48821.2
47320.8
44779.5
42345.6
37703.5
34122.1
26789.3
21468.7
22704.3
26668.7
31024.9
37627.7
48988
60857.2
70614.2
77604.3
82512.9
85987.2
87427.5
87903.5
88149.7
88178.5
88535
88892.4
89442.7
89735.4
90192
90364.5
90759.7
90860.4
91014.7
90847
90863.3
90575.9
90505.7
90058.8
89993.6
89632.8
89231.9
88464.2
87779.7
87187.2
87017
86285.4
84866.3
84701.1
82935.8
70161.3
50533
36462.1
32079.6
31559.8
31968.6
31963.6
31675.6
32076.4
32494.9
32648.2
32432.8
31990.3
31681.9
31346.1
30948.8
30446.3
29889.5
29313.1
28793.4
28300.3
27813.8
27323.7
26855.9
26407.8
25985.8
25594
25233.6
24911.1
24622.4
24376.1
24169.2
24004.5
23874.3
23777.4
23703.9
23652.9
23629.7
23631.8
23668
23700.3
23746.1
23809.2
23892.8
23990.5
24098.2
24207.6
24317.6
24428.9
24546.2
24673.1
24806.2
24941.1
25074.3
25198.9
25315.7
25427.6
25538.4
25654.9
25773.8
25886.1
25991.3
26105.9
26242
26401
26580.8
26788.7
27027.1
27298.1
27591.5
27904.9
28232.6
28555.4
28809.1
28881.8
28907.2
28975.1
29009.7
28953.2
29004.9
29275
29556.3
29583.6
29612.6
29656
29696.9
29735.3
29766.3
29791.1
29810.8
29825.2
29831.5
29828.7
29812.9
29774.1
29674.1
29479.5
29222.2
28955.2
28735.3
28596.5
28499.4
28398
28299.5
28214.3
28159.9
28156.6
28227.4
28399.3
28698.8
29149.9
29767
30554
31510.9
32627.6
33902.9
35320.3
36875.4
38522.2
40260.6
41994.9
43704.3
45222.9
46615.8
47771.7
48806.3
49573.6
50246.9
50639.8
51005.9
51140.9
51294.9
51298.1
51387.2
44564.2
43232.4
42965
42715.4
42536.6
42316.4
42123.1
41818.3
41473.5
40847.2
40200.7
39015.4
37907.5
35977
34225.4
30669.2
27820.6
21859.7
17410.1
18031.4
20778.3
23684.2
27684.7
35281.7
44512.1
53400.5
60411.8
65513.8
69292.3
71033.4
71622.3
71831.4
71767.2
71961.9
72179.5
72575.4
72776.3
73112
73229.6
73527.8
73616.4
73749.6
73615
73637.7
73414.3
73391.9
73062.1
73065.1
72874.7
72717.9
72255
71912.7
71632.8
71859.9
71809
71363.2
72008.7
72517.7
63404
45691
30798.9
24875.7
23230.8
22916.1
22583.2
22184.2
22399.6
22748.5
22961.9
22929.3
22728.5
22594.5
22390.6
22139.6
21829.1
21489
21129.7
20801.6
20482.9
20161.6
19843.4
19543.5
19257.8
18989.8
18743.3
18519.7
18323.7
18153
18013.4
17903.2
17822.2
17764.8
17730.2
17710.5
17706.1
17722.1
17755.9
17813.4
17865.7
17927.3
18002.4
18092.4
18191.3
18296
18400.5
18504.7
18610.1
18720.2
18837.7
18958.9
19080.4
19199.6
19311.4
19417.8
19521.2
19624.4
19732.9
19842.9
19948.7
20050.7
20162.7
20292.1
20440.5
20605.2
20792.6
21003.4
21239
21491
21757.1
22031.1
22293.3
22491.1
22557
22597
22666.6
22709
22693.3
22770.9
23003.4
23231.8
23267.6
23309.6
23363.1
23415.6
23465.9
23510.6
23551.8
23590.2
23624.9
23654.1
23676.7
23690.2
23686.8
23639.3
23522.4
23359.7
23190.7
23058.1
22987.1
22949.3
22909.2
22871.3
22842.5
22834.7
22861.4
22937.9
23081.9
23311.4
23643.4
24087.8
24646.7
25319.8
26098.7
26982.3
27960.7
29036.3
30184.6
31416
32674.1
33956.7
35149.5
36292.6
37273.5
38175.9
38870.4
39512.1
39924.3
40314.8
40487.2
40675.2
40712.4
40813.3
35758
34805.3
34573.6
34364.8
34214.6
34031.7
33876.2
33632.8
33369
32884
32402.6
31502.7
30702.5
29258.9
28030.8
25353.5
23122.7
18327.7
14538.1
14682.4
16566.1
18509.8
20922.7
25992.7
32500.2
39727.4
46413.5
51668.7
55728.8
57883
58756.5
59086.8
59059.9
59165.1
59278.9
59550.6
59673.4
59908.2
59979.6
60199.6
60272.6
60384.2
60274.9
60300
60127.2
60134
59892.6
59937.5
59853.9
59862
59614.5
59520.6
59452
59922.4
60283.9
60547.8
61684
63833.9
58099
42646.2
27455.5
20293.2
17825.7
17011.3
16467.5
16010.3
16054.6
16281.5
16478.3
16530.5
16462.2
16417.5
16293.3
16133.9
15944.7
15744.1
15526.3
15321.5
15119.6
14912
14711.9
14526.5
14351.3
14188.2
14040.4
13909.3
13798.1
13705.9
13635.9
13587.8
13559.6
13547.3
13550.5
13563.3
13586.3
13624.4
13675.2
13740.4
13802.4
13869.8
13948.1
14036.8
14131.1
14228.4
14324.4
14419.7
14516.3
14616.6
14722.3
14830.1
14937.4
15042.2
15140.9
15235.9
15329.1
15422.9
15521.2
15620.6
15717.4
15813
15918.2
16038
16173.4
16322
16489
16674.2
16878.3
17094.1
17319.4
17547.4
17759.6
17914.7
17974.1
18019.4
18085.6
18130.2
18139.9
18227.2
18425.6
18610.7
18649.9
18696.4
18752.5
18808.3
18861.8
18911.4
18960
19006.5
19050.4
19090.7
19126.5
19155.6
19172.3
19156.8
19089.4
18988
18882.6
18805.9
18777.3
18775.6
18773.1
18772.3
18777.5
18796.8
18839.3
18915
19035.3
19212.4
19458.6
19780.4
20179.2
20654.3
21199.1
21812.3
22487.5
23229.3
24024.6
24886.5
25782.5
26720.1
27623.7
28526.7
29336.9
30107.9
30722.4
31295.3
31693.3
32082.7
32279.7
32495.6
32560
32674.2
28945.9
28231.3
28034.7
27859.2
27732.7
27580.3
27455.3
27261.8
27062.3
26692.2
26340.4
25670.6
25110.1
24054
23223.1
21252.3
19538.8
15712
12442
12224.2
13487.9
14779.4
16216.6
19584.2
23984.3
29250.5
35033.5
40185.8
44367.7
46951.2
48223.4
48797.6
48916.4
49029.7
49116.8
49323
49416.1
49592.6
49639.8
49794.8
49844.4
49928.1
49831
49852.4
49717.8
49737.1
49559.1
49626.1
49605.7
49715
49613.4
49691.2
49761.6
50370.9
50952.2
51703
53109.1
56328.3
53600.4
40730.2
25655.1
17382.8
14265.5
13100.5
12426.6
11944.8
11869.3
11988.6
12142.5
12222.3
12216.5
12210.6
12133
12031.8
11917.4
11802
11673.2
11546
11420.2
11288.2
11166.3
11055.5
10952
10856.8
10772.4
10700.5
10642.8
10599.7
10572.2
10560.9
10563.3
10576.4
10599.9
10629.7
10666.6
10714.8
10772.1
10837.2
10901.2
10968
11043.7
11126.5
11212.7
11300.3
11386.2
11471.3
11557.6
11646.9
11740.1
11834.4
11927.8
12018.6
12104.7
12188.3
12270.8
12354.5
12442
12530.4
12617.4
12704.9
12801.4
12910.2
13032
13164.7
13312.4
13474.3
13650.5
13834.9
14025.1
14214.2
14385.5
14507.8
14560.9
14606.3
14666.7
14710.4
14735.3
14823.2
14991.6
15141.5
15181.1
15227.4
15282.1
15336.4
15388.9
15439
15489.1
15537.8
15584.8
15629.4
15670.8
15707.5
15735
15738.7
15703.2
15641.8
15578.1
15537.3
15534.7
15554.3
15574
15595
15619.8
15654.1
15703.6
15775.1
15875.4
16013
16196.6
16430.7
16715.9
17051.5
17432.5
17857.3
18321.8
18830.8
19377.6
19974.5
20603.2
21275.1
21941.1
22630.4
23275.1
23914.5
24449.8
24954.9
25321
25684.1
25888.7
26120.5
26204.8
26332.1
23579.2
23047.9
22883.6
22735.9
22629.2
22502
22401.8
22248.7
22100.2
21823.1
21572.7
21087.2
20711.7
19962.1
19431.5
18026.8
16746.2
13718.7
10875.9
10386.9
11199.9
12041.1
12870
15058.4
18031.2
21586.6
26057.2
30664.6
34701
37600.7
39308.2
40211.3
40568.1
40775.7
40906.2
41098.4
41201.6
41353.4
41407.5
41528.2
41578.9
41652.9
41586.5
41601.6
41491.5
41507.4
41369.1
41442
41456.2
41615.5
41607.3
41792.1
41950
42624.3
43299
44343.1
45877.9
49658.6
49499.8
39468.2
24971.8
15621
11908.4
10463.1
9701.55
9206.89
9053.82
9096.28
9208.12
9289.66
9308.36
9315.58
9264.58
9199.43
9130.31
9065.07
8989.33
8910.06
8831.77
8748.74
8676.13
8611.98
8553.13
8500.17
8455.02
8419.4
8394.08
8380.1
8377.27
8386.58
8405.23
8431.27
8464.42
8501.62
8544.1
8594.98
8652.32
8713.84
8775.1
8838.04
8908.09
8982.93
9059.88
9137.13
9212.71
9287.6
9363.5
9441.87
9523.04
9604.6
9685.15
9763.31
9837.83
9910.61
9983.05
10056.9
10133.9
10211.8
10289.2
10368.2
10455.5
10553.4
10662
10779.7
10909.6
11050.7
11202.4
11359.7
11519.9
11676.3
11814.7
11911.8
11958.8
12001.6
12055.5
12097.1
12130.5
12213.9
12356.2
12477.6
12516.1
12559.8
12611.1
12661.6
12710.7
12759.1
12807.5
12855.1
12901.6
12946.6
12989.4
13028.9
13061.4
13076.4
13061.2
13026.2
12989.7
12971.8
12984.7
13016.1
13048.1
13081
13116.4
13157.9
13209.2
13274.6
13358.2
13465.6
13603.2
13773.8
13977.6
14214.2
14479.5
14772
15089.1
15435.3
15807.2
16215.4
16649.8
17122.6
17602.2
18113.7
18609.4
19120.7
19570
20010.2
20342.9
20675.1
20871.8
21103.1
21198.9
21336.6
19304.8
18922.1
18786.9
18663
18573
18466.6
18386.5
18266.1
18157.7
17955.2
17783.9
17444.3
17209.5
16700.6
16396.8
15444.8
14527.2
12162
9685.72
8995.48
9477.41
10003
10447.5
11820.2
13806.6
16129.5
19272.3
22985.3
26568.7
29516.9
31567.3
32818.5
33478.3
33853.9
34094
34321.9
34472.4
34629.8
34716.4
34827.7
34898.8
34974.8
34951.2
34972.3
34902
34921.8
34830.7
34898.2
34927.8
35095.5
35141.5
35377.9
35586.6
36268.5
36965.2
38133.9
39717.1
43625.1
45527.8
38458.9
25144.8
14745
10371.3
8661.65
7826.96
7317.19
7110.04
7099.18
7178.52
7249.62
7274.56
7283.48
7247.43
7204.2
7161.96
7125.58
7080.56
7030.82
6981.55
6929.62
6887.5
6851.92
6820.33
6793.08
6771.78
6757.84
6751.72
6754.41
6765.34
6785.4
6811.86
6843.51
6880
6919.23
6962.53
7012.19
7066.29
7122.67
7179.03
7236.61
7299.79
7366.2
7433.86
7501.23
7567.1
7632.41
7698.63
7766.81
7837
7907.19
7976.32
8043.35
8107.62
8170.77
8233.99
8298.73
8366.18
8434.6
8503.13
8573.97
8652.3
8739.68
8836
8940.02
9053.95
9176.65
9307.23
9441.18
9575.91
9705.1
9817
9894.8
9936.12
9975.28
10022.8
10061.7
10099
10175.4
10295.2
10394
10430.5
10470.6
10517.4
10563.1
10608.1
10653.2
10698.4
10743.2
10787.3
10830.5
10872.2
10911.5
10945.7
10966.8
10964.4
10946.6
10928
10924.4
10945.9
10983
11020.9
11059.5
11099.6
11143.4
11193.3
11252.1
11321.5
11405.7
11509
11633.2
11778.4
11944.1
12127.2
12326.4
12539.8
12771.6
13020.3
13294.6
13589.1
13915.1
14252.6
14622.5
14992.3
15387.5
15750.1
16120.7
16416
16718
16905.6
17124.2
17223
17365.6
15896.2
15610.1
15501.9
15398.6
15322.6
15233.5
15169.5
15075.5
14998.4
14854.8
14744.6
14518.8
14389.5
14069.2
13933.6
13343.7
12731
10920
8770.52
7932.45
8168.42
8469.91
8667.3
9478.2
10776
12284
14340.6
17059.2
19979.6
22658
24807.4
26315.1
27282.6
27871.5
28277.5
28587.8
28823
29015.5
29158.9
29283.4
29392.5
29480.2
29509.3
29543.7
29524.6
29552
29514
29580.9
29636.2
29802.5
29890
30132.1
30363.4
31004.7
31691.6
32844.2
34433.2
38130
41524.7
37397.4
25879.6
14676.5
9445.51
7434.77
6520.44
5986.18
5734.09
5682.41
5735.37
5792.33
5815.29
5821.43
5793.78
5763.78
5737.35
5717.32
5690.02
5658.45
5627
5594.8
5571.43
5553.24
5538.19
5526.5
5519.55
5518.4
5523.39
5535.27
5553.43
5578.48
5607.93
5641.11
5677.59
5715.98
5757.6
5804.07
5853.56
5904.3
5955.04
6006.83
6062.98
6121.3
6180.31
6238.75
6295.88
6352.62
6410.13
6469.21
6529.7
6589.97
6649.23
6706.71
6762.11
6816.85
6871.93
6928.57
6987.54
7047.54
7108.14
7171.41
7241.39
7319.12
7404.3
7496.01
7595.72
7702.26
7814.47
7928.44
8041.61
8148.33
8239.14
8302.12
8338.38
8373.54
8415.21
8451.41
8489.44
8557.81
8658.29
8739.2
8773.14
8809.44
8851.28
8892.07
8932.77
8973.94
9015.22
9056.28
9097.01
9137.22
9176.45
9213.96
9247.71
9271.75
9277.22
9270.57
9263.41
9268.56
9294.16
9333.1
9372.87
9413.18
9454.19
9497.43
9544.13
9596.09
9653.57
9719.59
9797.17
9887.36
9989.96
10104.7
10229.2
10362.2
10502.5
10653.8
10815.7
10995
11189.4
11408.4
11639.4
11899.7
12167.6
12463.9
12746.3
13046.6
13298.5
13565.3
13742.6
13947.9
14045.2
14186.2
13162.2
12933.1
12849.4
12763.8
12699.8
12625.1
12573.9
12501
12447.8
12350.1
12286.5
12148
12096.1
11921.8
11909.4
11603.2
11250.1
9909.04
8061.23
7116.38
7167.08
7307.2
7341.64
7767.82
8582.15
9543.85
10837.9
12679.9
14868
17070.2
19045.8
20609.2
21785.1
22574.1
23170.8
23597.7
23949.5
24205.4
24428.8
24588.6
24753.5
24863.6
24954.1
25008.2
25049.5
25087.4
25108.3
25175.7
25268.1
25423.3