/*--------------------------------*- C++ -*----------------------------------*\
| =========                 |                                                 |
| \\      /  F ield         | OpenFOAM: The Open Source CFD Toolbox           |
|  \\    /   O peration     | Version:  2212                                  |
|   \\  /    A nd           | Website:  www.openfoam.com                      |
|    \\/     M anipulation  |                                                 |
\*---------------------------------------------------------------------------*/
FoamFile
{
    version     2.0;
    format      ascii;
    arch        "LSB;label=32;scalar=64";
    class       volScalarField;
    location    "5000";
    object      p;
}
// * * * * * * * * * * * * * * * * * * * * * * * * * * * * * * * * * * * * * //

dimensions      [0 2 -2 0 0 0 0];

internalField   nonuniform List<scalar> 
10368
(
34.9467
33.1127
32.28
31.8414
31.6745
32.0016
33.2285
36.0909
40.9464
49.3381
60.4322
76.2476
94.3177
116.508
138.819
162.967
182.756
193.44
210.547
214.748
204.877
161.353
77.8163
-26.5067
-105.23
-167.53
-232.543
-283.271
-313.729
-335.494
-352.521
-366.922
-380.258
-393.577
-405.694
-416.094
-424.842
-432.086
-437.85
-442.186
-444.715
-445.142
-444.978
-443.079
-440.34
-436.009
-430.387
-423.688
-414.002
-402.477
-389.454
-374.993
-358.95
-339.927
-317.706
-294.772
-272.203
-248.277
-227.58
-214.343
-207.371
-204.278
-202.4
-201.272
-199.97
-198.86
-198.369
-198.26
-198.267
-198.327
-198.417
-198.548
-198.636
-198.748
-198.816
-198.923
-199.009
-199.111
-199.204
-199.279
-199.354
-199.428
-199.506
-199.584
-199.662
-199.746
-199.827
-199.921
-200.011
-200.119
-200.231
-200.353
-200.48
-200.611
-200.732
-200.857
-200.986
-201.113
-201.244
-201.351
-201.462
-201.564
-201.667
-201.764
-201.853
-201.926
-201.986
-202.027
-202.061
-202.084
-202.096
-202.096
-202.076
-202.029
-201.956
-201.849
-201.722
-201.572
-201.401
-201.181
-200.932
-200.654
-200.382
-200.084
-199.804
-199.514
-199.264
-199.014
-198.792
-198.569
-198.373
-198.127
-197.702
-197.087
-196.334
-195.53
-194.502
-193.15
-192.029
-191.193
-189.98
-188.675
-187.209
-185.609
-183.846
-181.912
-179.775
-177.413
-174.793
-171.874
-168.629
-164.994
-160.953
-156.429
-151.395
-145.782
-139.569
-132.66
-125.057
-116.644
-107.462
-97.529
-86.9408
-75.8043
-64.2904
-52.6274
-41.1083
-30.087
-19.943
-11.0299
-3.65371
2.02512
6.01266
8.40697
9.40609
9.35363
8.6484
7.54885
6.27541
5.08538
4.00012
3.12041
2.41536
1.8999
1.51096
1.23848
1.02359
0.854148
0.670046
0.428679
0.110866
-0.100617
34.9444
33.1102
32.2775
31.8391
31.6722
31.9994
33.2262
36.0885
40.9436
49.3348
60.4279
76.2421
94.3105
116.499
138.808
162.955
182.747
193.43
210.542
214.747
204.87
161.331
77.7839
-26.5308
-105.245
-167.542
-232.553
-283.28
-313.738
-335.502
-352.53
-366.931
-380.266
-393.585
-405.702
-416.103
-424.85
-432.095
-437.859
-442.195
-444.724
-445.152
-444.988
-443.089
-440.351
-436.021
-430.399
-423.701
-414.017
-402.493
-389.471
-375.011
-358.971
-339.951
-317.733
-294.799
-272.232
-248.309
-227.608
-214.364
-207.384
-204.286
-202.405
-201.277
-199.975
-198.863
-198.37
-198.261
-198.266
-198.327
-198.416
-198.548
-198.636
-198.748
-198.816
-198.922
-199.009
-199.111
-199.204
-199.279
-199.353
-199.428
-199.505
-199.584
-199.662
-199.746
-199.827
-199.921
-200.01
-200.119
-200.231
-200.353
-200.48
-200.61
-200.732
-200.857
-200.985
-201.113
-201.244
-201.351
-201.462
-201.564
-201.667
-201.764
-201.853
-201.926
-201.986
-202.027
-202.061
-202.084
-202.096
-202.096
-202.076
-202.029
-201.955
-201.849
-201.721
-201.572
-201.401
-201.181
-200.932
-200.653
-200.381
-200.083
-199.804
-199.514
-199.264
-199.013
-198.792
-198.568
-198.372
-198.126
-197.7
-197.085
-196.332
-195.527
-194.499
-193.146
-192.026
-191.19
-189.976
-188.671
-187.204
-185.604
-183.841
-181.906
-179.769
-177.407
-174.786
-171.867
-168.621
-164.986
-160.945
-156.42
-151.386
-145.772
-139.559
-132.649
-125.046
-116.633
-107.45
-97.5176
-86.9297
-75.7935
-64.2803
-52.618
-41.1
-30.0799
-19.9372
-11.0255
-3.65075
2.0268
6.01325
8.40667
9.40514
9.35226
8.64679
7.54709
6.27359
5.08355
3.9983
3.11859
2.41356
1.8981
1.50918
1.2367
1.02184
0.852398
0.668335
0.426973
0.109206
-0.102284
34.9423
33.1082
32.2755
31.837
31.6702
31.9972
33.2239
36.0859
40.9404
49.3309
60.4228
76.2356
94.3023
116.489
138.796
162.943
182.737
193.421
210.537
214.746
204.862
161.308
77.7568
-26.5378
-105.233
-167.52
-232.52
-283.244
-313.703
-335.47
-352.5
-366.903
-380.241
-393.561
-405.679
-416.081
-424.83
-432.076
-437.842
-442.18
-444.711
-445.141
-444.979
-443.082
-440.346
-436.018
-430.399
-423.704
-414.023
-402.502
-389.483
-375.027
-358.99
-339.975
-317.76
-294.827
-272.262
-248.341
-227.637
-214.385
-207.397
-204.293
-202.41
-201.281
-199.979
-198.866
-198.371
-198.261
-198.266
-198.327
-198.416
-198.547
-198.635
-198.748
-198.816
-198.922
-199.008
-199.111
-199.203
-199.279
-199.353
-199.428
-199.505
-199.584
-199.662
-199.746
-199.827
-199.921
-200.01
-200.118
-200.231
-200.352
-200.48
-200.61
-200.732
-200.857
-200.985
-201.113
-201.244
-201.351
-201.462
-201.564
-201.667
-201.764
-201.853
-201.926
-201.986
-202.027
-202.061
-202.084
-202.096
-202.096
-202.075
-202.029
-201.955
-201.848
-201.721
-201.572
-201.4
-201.18
-200.932
-200.653
-200.381
-200.083
-199.803
-199.514
-199.263
-199.013
-198.791
-198.568
-198.372
-198.125
-197.699
-197.084
-196.33
-195.525
-194.496
-193.143
-192.024
-191.188
-189.972
-188.667
-187.2
-185.599
-183.836
-181.901
-179.764
-177.401
-174.779
-171.86
-168.613
-164.978
-160.936
-156.411
-151.377
-145.762
-139.549
-132.639
-125.035
-116.621
-107.439
-97.5063
-86.9185
-75.7827
-64.2701
-52.6087
-41.0917
-30.0728
-19.9315
-11.0214
-3.64808
2.02808
6.01333
8.4058
9.40358
9.35027
8.64457
7.54478
6.27128
5.08126
3.99604
3.11636
2.41136
1.89592
1.50701
1.23454
1.01969
0.850247
0.666188
0.424826
0.107065
-0.104427
34.9614
33.1301
32.2964
31.8566
31.6888
32.0148
33.2404
36.1007
40.953
49.3402
60.4284
76.2363
94.2985
116.481
138.785
162.931
182.728
193.41
210.531
214.744
204.856
161.3
77.7733
-26.4602
-105.104
-167.357
-232.325
-283.037
-313.495
-335.269
-352.307
-366.717
-380.06
-393.383
-405.506
-415.911
-424.667
-431.917
-437.69
-442.033
-444.573
-445.009
-444.856
-442.965
-440.238
-435.918
-430.308
-423.622
-413.954
-402.444
-389.438
-374.992
-358.969
-339.969
-317.768
-294.845
-272.289
-248.373
-227.666
-214.406
-207.41
-204.301
-202.415
-201.285
-199.984
-198.87
-198.373
-198.261
-198.266
-198.327
-198.416
-198.547
-198.635
-198.747
-198.815
-198.922
-199.008
-199.11
-199.203
-199.279
-199.353
-199.428
-199.505
-199.583
-199.662
-199.745
-199.827
-199.92
-200.01
-200.118
-200.231
-200.352
-200.48
-200.61
-200.731
-200.857
-200.985
-201.113
-201.244
-201.351
-201.462
-201.564
-201.667
-201.764
-201.853
-201.926
-201.986
-202.027
-202.061
-202.084
-202.096
-202.096
-202.076
-202.029
-201.955
-201.848
-201.721
-201.571
-201.4
-201.18
-200.932
-200.653
-200.381
-200.082
-199.803
-199.513
-199.263
-199.013
-198.791
-198.568
-198.372
-198.125
-197.698
-197.082
-196.328
-195.522
-194.492
-193.14
-192.021
-191.184
-189.968
-188.663
-187.195
-185.594
-183.83
-181.894
-179.757
-177.393
-174.771
-171.851
-168.604
-164.968
-160.926
-156.4
-151.365
-145.75
-139.537
-132.626
-125.022
-116.608
-107.426
-97.4938
-86.9065
-75.7714
-64.2597
-52.5992
-41.0833
-30.0655
-19.9251
-11.0156
-3.6427
2.03347
6.01909
8.4122
9.41081
9.35846
8.65373
7.55489
6.28221
5.09294
4.00824
3.12905
2.42427
1.90911
1.52017
1.24781
1.03272
0.863295
0.678857
0.437452
0.119239
-0.0921782
35.0504
33.2263
32.3895
31.9458
31.7754
32.098
33.3205
36.176
41.0224
49.4003
60.4782
76.2716
94.3206
116.488
138.782
162.919
182.717
193.399
210.525
214.744
204.863
161.335
77.8858
-26.2388
-104.796
-166.99
-231.906
-282.587
-313.039
-334.814
-351.861
-366.277
-379.628
-392.952
-405.081
-415.489
-424.253
-431.507
-437.292
-441.642
-444.197
-444.643
-444.506
-442.627
-439.916
-435.61
-430.019
-423.349
-413.706
-402.219
-389.238
-374.818
-358.825
-339.86
-317.697
-294.805
-272.283
-248.398
-227.698
-214.428
-207.423
-204.309
-202.421
-201.29
-199.989
-198.873
-198.374
-198.261
-198.266
-198.326
-198.415
-198.546
-198.635
-198.747
-198.815
-198.921
-199.008
-199.11
-199.203
-199.278
-199.353
-199.427
-199.505
-199.583
-199.662
-199.745
-199.827
-199.92
-200.01
-200.118
-200.23
-200.352
-200.48
-200.61
-200.731
-200.857
-200.985
-201.113
-201.244
-201.351
-201.462
-201.564
-201.667
-201.764
-201.853
-201.926
-201.986
-202.027
-202.061
-202.084
-202.096
-202.096
-202.075
-202.029
-201.955
-201.848
-201.721
-201.571
-201.4
-201.179
-200.93
-200.651
-200.379
-200.081
-199.801
-199.512
-199.261
-199.01
-198.789
-198.565
-198.368
-198.12
-197.693
-197.076
-196.321
-195.514
-194.483
-193.13
-192.012
-191.174
-189.957
-188.65
-187.182
-185.579
-183.814
-181.878
-179.739
-177.375
-174.752
-171.832
-168.584
-164.947
-160.904
-156.378
-151.343
-145.727
-139.514
-132.604
-125.001
-116.588
-107.407
-97.4763
-86.8909
-75.7579
-64.248
-52.589
-41.074
-30.0563
-19.9147
-11.0024
-3.62506
2.05702
6.04933
8.44927
9.45422
9.40751
8.70749
7.61269
6.34313
5.15654
4.07378
3.19633
2.49233
1.97809
1.58905
1.31708
1.1012
0.931818
0.746107
0.504556
0.184804
-0.0263478
35.2414
33.4265
32.5851
32.1355
31.9609
32.2784
33.4962
36.3443
41.1817
49.5448
60.6061
76.3745
94.3994
116.536
138.804
162.919
182.71
193.387
210.518
214.751
204.899
161.425
78.0796
-25.9267
-104.393
-166.533
-231.399
-282.033
-312.472
-334.239
-351.284
-365.701
-379.053
-392.375
-404.505
-414.912
-423.678
-430.934
-436.726
-441.08
-443.646
-444.1
-443.975
-442.106
-439.409
-435.115
-429.541
-422.887
-413.268
-401.803
-388.85
-374.463
-358.509
-339.593
-317.486
-294.651
-272.192
-248.384
-227.725
-214.453
-207.437
-204.317
-202.427
-201.295
-199.994
-198.877
-198.376
-198.262
-198.266
-198.326
-198.415
-198.546
-198.634
-198.746
-198.815
-198.921
-199.007
-199.109
-199.202
-199.278
-199.352
-199.427
-199.504
-199.583
-199.661
-199.745
-199.826
-199.92
-200.01
-200.118
-200.23
-200.352
-200.48
-200.61
-200.731
-200.857
-200.985
-201.113
-201.244
-201.351
-201.462
-201.564
-201.666
-201.763
-201.852
-201.925
-201.985
-202.026
-202.06
-202.082
-202.094
-202.094
-202.073
-202.026
-201.951
-201.844
-201.716
-201.566
-201.394
-201.173
-200.924
-200.644
-200.371
-200.072
-199.792
-199.502
-199.251
-198.999
-198.777
-198.552
-198.354
-198.104
-197.673
-197.054
-196.298
-195.489
-194.456
-193.102
-191.985
-191.145
-189.925
-188.617
-187.147
-185.543
-183.777
-181.839
-179.699
-177.334
-174.71
-171.789
-168.54
-164.904
-160.861
-156.335
-151.3
-145.686
-139.474
-132.565
-124.965
-116.555
-107.379
-97.452
-86.8709
-75.7416
-64.2349
-52.5781
-41.0635
-30.0439
-19.8974
-10.9765
-3.58671
2.11091
6.1203
8.53726
9.55767
9.52424
8.83489
7.7488
6.48568
5.30444
4.2253
3.35095
2.64836
2.13571
1.74653
1.47524
1.25808
1.08878
0.900971
0.659178
0.336873
0.126178
35.4899
33.68
32.8349
32.3805
32.2026
32.5159
33.7298
36.5718
41.4017
49.752
60.7985
76.5432
94.5414
116.639
138.871
162.944
182.715
193.375
210.511
214.769
204.959
161.529
78.2654
-25.6453
-104.042
-166.153
-230.982
-281.57
-312.002
-333.758
-350.798
-365.21
-378.559
-391.877
-404.004
-414.407
-423.172
-430.425
-436.216
-440.568
-443.134
-443.588
-443.465
-441.597
-438.904
-434.612
-429.044
-422.395
-412.784
-401.329
-388.389
-374.021
-358.092
-339.208
-317.151
-294.375
-271.987
-248.289
-227.728
-214.479
-207.453
-204.326
-202.433
-201.301
-200.001
-198.882
-198.378
-198.262
-198.266
-198.325
-198.414
-198.545
-198.633
-198.746
-198.814
-198.92
-199.007
-199.109
-199.202
-199.278
-199.352
-199.427
-199.504
-199.583
-199.661
-199.745
-199.826
-199.92
-200.009
-200.117
-200.23
-200.351
-200.479
-200.609
-200.73
-200.856
-200.984
-201.111
-201.242
-201.349
-201.459
-201.561
-201.663
-201.759
-201.848
-201.92
-201.979
-202.019
-202.052
-202.074
-202.085
-202.084
-202.062
-202.014
-201.938
-201.83
-201.701
-201.549
-201.376
-201.154
-200.903
-200.623
-200.349
-200.049
-199.767
-199.476
-199.223
-198.97
-198.746
-198.519
-198.319
-198.065
-197.632
-197.01
-196.251
-195.44
-194.404
-193.05
-191.934
-191.091
-189.869
-188.559
-187.088
-185.483
-183.716
-181.777
-179.637
-177.271
-174.647
-171.726
-168.478
-164.842
-160.8
-156.276
-151.243
-145.632
-139.423
-132.519
-124.923
-116.518
-107.347
-97.4253
-86.8493
-75.7246
-64.2213
-52.5664
-41.0516
-30.0287
-19.875
-10.9422
-3.53548
2.18336
6.21664
8.65826
9.70192
9.68905
9.01654
7.94408
6.69102
5.51751
4.44041
3.568
2.8661
2.35445
1.96486
1.69396
1.4755
1.30621
1.11641
0.874394
0.549719
0.339441
35.7103
33.8989
33.0523
32.5963
32.4172
32.729
33.9415
36.7812
41.6082
49.9534
60.9934
76.7266
94.7087
116.778
138.976
163.001
182.741
193.365
210.506
214.792
205.011
161.578
78.3848
-25.4435
-103.79
-165.891
-230.693
-281.238
-311.673
-333.423
-350.459
-364.867
-378.214
-391.528
-403.651
-414.05
-422.813
-430.063
-435.85
-440.197
-442.76
-443.211
-443.085
-441.215
-438.521
-434.228
-428.659
-422.008
-412.398
-400.944
-388.007
-373.639
-357.709
-338.827
-316.787
-294.042
-271.698
-248.101
-227.679
-214.497
-207.471
-204.335
-202.439
-201.307
-200.007
-198.887
-198.38
-198.263
-198.266
-198.325
-198.413
-198.544
-198.633
-198.745
-198.814
-198.92
-199.006
-199.108
-199.202
-199.277
-199.352
-199.426
-199.504
-199.582
-199.66
-199.744
-199.825
-199.919
-200.008
-200.116
-200.228
-200.349
-200.476
-200.606
-200.727
-200.851
-200.979
-201.105
-201.235
-201.341
-201.451
-201.551
-201.652
-201.748
-201.835
-201.906
-201.964
-202.003
-202.035
-202.055
-202.065
-202.062
-202.038
-201.988
-201.911
-201.801
-201.671
-201.518
-201.343
-201.12
-200.868
-200.586
-200.311
-200.01
-199.727
-199.434
-199.18
-198.926
-198.7
-198.471
-198.268
-198.011
-197.575
-196.952
-196.192
-195.379
-194.343
-192.99
-191.875
-191.028
-189.806
-188.496
-187.024
-185.42
-183.653
-181.715
-179.575
-177.21
-174.588
-171.668
-168.422
-164.788
-160.748
-156.227
-151.197
-145.589
-139.384
-132.483
-124.891
-116.49
-107.322
-97.4042
-86.8313
-75.7093
-64.2081
-52.5541
-41.0387
-30.0133
-19.8544
-10.9132
-3.49433
2.24084
6.29446
8.75953
9.82792
9.83916
9.1881
8.13392
6.89512
5.72962
4.65035
3.77678
3.07385
2.56169
2.17129
1.90011
1.68071
1.51131
1.32035
1.07823
0.752316
0.542215
35.8728
34.058
33.2108
32.7545
32.5752
32.8866
34.0987
36.9378
41.7639
50.1072
61.1447
76.8729
94.851
116.913
139.091
163.077
182.789
193.364
210.505
214.804
205.021
161.544
78.4149
-25.3062
-103.611
-165.717
-230.495
-280.993
-311.441
-333.186
-350.218
-364.624
-377.968
-391.278
-403.398
-413.793
-422.553
-429.8
-435.584
-439.928
-442.489
-442.938
-442.811
-440.939
-438.244
-433.949
-428.38
-421.727
-412.118
-400.664
-387.729
-373.354
-357.418
-338.528
-316.477
-293.728
-271.384
-247.844
-227.562
-214.493
-207.489
-204.344
-202.445
-201.312
-200.015
-198.892
-198.382
-198.263
-198.265
-198.324
-198.412
-198.543
-198.632
-198.745
-198.813
-198.919
-199.005
-199.107
-199.2
-199.276
-199.35
-199.425
-199.502
-199.58
-199.658
-199.741
-199.822
-199.915
-200.003
-200.11
-200.222
-200.342
-200.468
-200.597
-200.717
-200.84
-200.967
-201.092
-201.221
-201.326
-201.435
-201.534
-201.634
-201.727
-201.813
-201.883
-201.94
-201.977
-202.008
-202.026
-202.035
-202.031
-202.005
-201.955
-201.877
-201.765
-201.634
-201.48
-201.305
-201.081
-200.828
-200.546
-200.27
-199.969
-199.686
-199.393
-199.138
-198.883
-198.656
-198.427
-198.223
-197.962
-197.527
-196.905
-196.145
-195.333
-194.298
-192.948
-191.835
-190.984
-189.765
-188.456
-186.985
-185.382
-183.616
-181.68
-179.542
-177.178
-174.557
-171.639
-168.394
-164.762
-160.724
-156.204
-151.176
-145.57
-139.367
-132.468
-124.876
-116.476
-107.308
-97.3905
-86.8178
-75.6959
-64.1948
-52.5408
-41.0253
-29.9995
-19.84
-10.8975
-3.47602
2.26435
6.32705
8.80596
9.89262
9.92523
9.29622
8.26306
7.04244
5.88817
4.80928
3.93465
3.23091
2.71832
2.32746
2.05605
1.83615
1.66667
1.47514
1.233
0.906537
0.6965
35.9943
34.1763
33.3283
32.8718
32.6921
33.003
34.2147
37.053
41.8778
50.2191
61.2537
76.9773
94.9535
117.013
139.191
163.152
182.845
193.373
210.506
214.798
204.98
161.452
78.292
-25.2143
-103.484
-165.606
-230.36
-280.803
-311.274
-333.015
-350.045
-364.449
-377.791
-391.098
-403.214
-413.606
-422.363
-429.606
-435.388
-439.729
-442.287
-442.734
-442.606
-440.731
-438.035
-433.737
-428.167
-421.51
-411.9
-400.444
-387.508
-373.13
-357.192
-338.299
-316.238
-293.467
-271.091
-247.545
-227.384
-214.45
-207.503
-204.355
-202.451
-201.318
-200.022
-198.898
-198.384
-198.263
-198.265
-198.323
-198.411
-198.542
-198.63
-198.743
-198.811
-198.917
-199.003
-199.105
-199.197
-199.273
-199.346
-199.42
-199.497
-199.574
-199.651
-199.734
-199.814
-199.906
-199.994
-200.1
-200.211
-200.33
-200.455
-200.583
-200.702
-200.824
-200.95
-201.074
-201.202
-201.306
-201.414
-201.512
-201.611
-201.704
-201.789
-201.859
-201.914
-201.951
-201.981
-201.999
-202.007
-202.003
-201.977
-201.926
-201.848
-201.737
-201.606
-201.452
-201.277
-201.053
-200.802
-200.52
-200.245
-199.945
-199.663
-199.37
-199.116
-198.862
-198.635
-198.406
-198.2
-197.938
-197.507
-196.887
-196.128
-195.317
-194.284
-192.937
-191.829
-190.972
-189.755
-188.448
-186.978
-185.376
-183.611
-181.676
-179.538
-177.175
-174.555
-171.637
-168.392
-164.76
-160.722
-156.202
-151.174
-145.567
-139.363
-132.463
-124.87
-116.468
-107.298
-97.3792
-86.8051
-75.6821
-64.1803
-52.5263
-41.0114
-29.9871
-19.83
-10.8908
-3.47309
2.26396
6.32522
8.80621
9.89984
9.94465
9.33189
8.31734
7.11544
5.98151
4.91828
4.04724
3.34428
2.83212
2.44149
2.17035
1.95025
1.78091
1.58895
1.34687
1.01997
0.810009
36.086
34.2632
33.4145
32.9579
32.7781
33.0887
34.3002
37.1379
41.962
50.3017
61.3344
77.0547
95.0277
117.082
139.264
163.212
182.897
193.39
210.509
214.772
204.903
161.327
77.9812
-25.1585
-103.383
-165.537
-230.267
-280.644
-311.153
-332.891
-349.919
-364.322
-377.662
-390.966
-403.079
-413.468
-422.221
-429.462
-435.241
-439.578
-442.134
-442.579
-442.448
-440.571
-437.871
-433.571
-427.997
-421.335
-411.724
-400.265
-387.326
-372.944
-357.002
-338.104
-316.04
-293.256
-270.846
-247.234
-227.148
-214.358
-207.503
-204.368
-202.458
-201.325
-200.03
-198.904
-198.385
-198.262
-198.263
-198.321
-198.408
-198.539
-198.627
-198.739
-198.807
-198.912
-198.998
-199.099
-199.191
-199.266
-199.339
-199.412
-199.488
-199.565
-199.641
-199.723
-199.803
-199.894
-199.981
-200.087
-200.197
-200.316
-200.44
-200.568
-200.686
-200.809
-200.934
-201.058
-201.186
-201.29
-201.397
-201.496
-201.595
-201.688
-201.773
-201.842
-201.898
-201.936
-201.966
-201.984
-201.993
-201.989
-201.964
-201.913
-201.836
-201.726
-201.596
-201.443
-201.269
-201.047
-200.797
-200.517
-200.243
-199.944
-199.663
-199.371
-199.118
-198.864
-198.639
-198.409
-198.202
-197.94
-197.511
-196.892
-196.135
-195.324
-194.292
-192.948
-191.845
-190.981
-189.765
-188.458
-186.989
-185.387
-183.622
-181.686
-179.548
-177.185
-174.564
-171.645
-168.399
-164.766
-160.726
-156.205
-151.175
-145.567
-139.361
-132.458
-124.863
-116.458
-107.287
-97.3656
-86.7899
-75.6659
-64.1637
-52.5101
-40.9966
-29.9747
-19.8211
-10.8866
-3.47483
2.25553
6.31011
8.78559
9.87656
9.92306
9.31693
8.31347
7.12586
6.01184
4.97823
4.1237
3.42651
2.91548
2.52523
2.25459
2.03454
1.86553
1.67327
1.43131
1.1041
0.894193
36.1551
34.3254
33.4759
33.0196
32.8398
33.1504
34.3618
37.1992
42.0227
50.3614
61.3926
77.1107
95.0812
117.131
139.314
163.255
182.94
193.409
210.512
214.734
204.801
161.177
77.6211
-25.1956
-103.293
-165.489
-230.197
-280.494
-311.059
-332.796
-349.824
-364.226
-377.564
-390.865
-402.975
-413.361
-422.111
-429.348
-435.124
-439.459
-442.012
-442.454
-442.32
-440.44
-437.738
-433.433
-427.856
-421.188
-411.576
-400.113
-387.171
-372.782
-356.835
-337.933
-315.866
-293.072
-270.639
-246.949
-226.847
-214.214
-207.478
-204.379
-202.468
-201.336
-200.042
-198.913
-198.387
-198.26
-198.26
-198.317
-198.403
-198.533
-198.621
-198.733
-198.8
-198.905
-198.99
-199.09
-199.182
-199.256
-199.329
-199.402
-199.478
-199.554
-199.631
-199.712
-199.792
-199.883
-199.97
-200.076
-200.186
-200.305
-200.43
-200.558
-200.677
-200.799
-200.925
-201.05
-201.178
-201.283
-201.391
-201.49
-201.589
-201.683
-201.769
-201.839
-201.895
-201.934
-201.964
-201.984
-201.993
-201.99
-201.966
-201.917
-201.841
-201.732
-201.603
-201.451
-201.278
-201.057
-200.808
-200.529
-200.256
-199.959
-199.678
-199.388
-199.135
-198.882
-198.656
-198.426
-198.217
-197.957
-197.527
-196.908
-196.151
-195.339
-194.307
-192.967
-191.869
-190.996
-189.78
-188.473
-187.003
-185.4
-183.634
-181.697
-179.559
-177.194
-174.571
-171.651
-168.404
-164.769
-160.727
-156.204
-151.172
-145.561
-139.353
-132.448
-124.851
-116.444
-107.271
-97.3479
-86.7712
-75.6467
-64.1448
-52.4921
-40.9805
-29.9614
-19.8117
-10.8823
-3.47667
2.24655
6.29327
8.76066
9.84442
9.88592
9.27833
8.27756
7.09703
5.99324
4.98088
4.15515
3.47625
2.97402
2.58489
2.31491
2.09509
1.92669
1.73424
1.49258
1.16511
0.955282
36.207
34.3695
33.5194
33.0634
32.8837
33.1942
34.4056
37.2427
42.0657
50.4034
61.4331
77.1491
95.1176
117.165
139.346
163.285
182.974
193.428
210.516
214.683
204.68
161.003
77.389
-25.4248
-103.238
-165.444
-230.128
-280.331
-310.979
-332.72
-349.748
-364.149
-377.485
-390.783
-402.888
-413.271
-422.019
-429.253
-435.025
-439.356
-441.907
-442.347
-442.209
-440.325
-437.62
-433.311
-427.73
-421.056
-411.444
-399.975
-387.031
-372.633
-356.682
-337.778
-315.712
-292.903
-270.453
-246.702
-226.493
-214.008
-207.418
-204.383
-202.482
-201.35
-200.06
-198.926
-198.39
-198.258
-198.256
-198.312
-198.397
-198.526
-198.614
-198.726
-198.793
-198.897
-198.981
-199.081
-199.173
-199.248
-199.321
-199.394
-199.47
-199.546
-199.623
-199.705
-199.785
-199.877
-199.965
-200.071
-200.182
-200.302
-200.427
-200.555
-200.675
-200.799
-200.925
-201.051
-201.179
-201.285
-201.394
-201.493
-201.593
-201.688
-201.774
-201.845
-201.902
-201.941
-201.973
-201.993
-202.003
-202
-201.977
-201.928
-201.853
-201.746
-201.618
-201.467
-201.294
-201.074
-200.826
-200.549
-200.276
-199.979
-199.699
-199.41
-199.158
-198.905
-198.678
-198.447
-198.238
-197.976
-197.543
-196.924
-196.166
-195.353
-194.32
-192.984
-191.891
-191.01
-189.791
-188.484
-187.013
-185.409
-183.642
-181.704
-179.564
-177.197
-174.573
-171.651
-168.402
-164.765
-160.722
-156.196
-151.162
-145.55
-139.339
-132.432
-124.833
-116.424
-107.249
-97.3258
-86.7485
-75.6241
-64.1229
-52.4719
-40.9628
-29.947
-19.8016
-10.8773
-3.47781
2.23856
6.27775
8.73709
9.81279
9.84702
9.23395
8.23024
7.05045
5.95093
4.94502
4.13828
3.48388
3.00336
2.62433
2.35673
2.13753
1.96984
1.77739
1.53628
1.2086
0.998912
36.2435
34.4008
33.5504
33.0946
32.915
33.2255
34.4369
37.2737
42.096
50.4325
61.4603
77.1739
95.1404
117.185
139.366
163.305
183.004
193.448
210.523
214.62
204.536
160.799
77.2706
-25.7239
-103.319
-165.426
-230.042
-280.127
-310.899
-332.652
-349.682
-364.084
-377.416
-390.71
-402.811
-413.191
-421.934
-429.165
-434.933
-439.261
-441.809
-442.246
-442.104
-440.217
-437.507
-433.194
-427.607
-420.926
-411.316
-399.842
-386.897
-372.489
-356.535
-337.632
-315.575
-292.749
-270.29
-246.476
-226.148
-213.716
-207.309
-204.372
-202.494
-201.369
-200.084
-198.944
-198.396
-198.257
-198.252
-198.306
-198.39
-198.518
-198.606
-198.718
-198.786
-198.89
-198.974
-199.075
-199.167
-199.242
-199.316
-199.39
-199.466
-199.544
-199.622
-199.704
-199.785
-199.878
-199.967
-200.073
-200.185
-200.305
-200.431
-200.56
-200.681
-200.805
-200.932
-201.058
-201.187
-201.294
-201.403
-201.503
-201.603
-201.698
-201.784
-201.856
-201.914
-201.953
-201.985
-202.006
-202.016
-202.014
-201.991
-201.943
-201.868
-201.762
-201.634
-201.484
-201.312
-201.093
-200.846
-200.569
-200.297
-200.002
-199.722
-199.434
-199.182
-198.928
-198.701
-198.47
-198.259
-197.993
-197.557
-196.936
-196.178
-195.363
-194.328
-192.997
-191.909
-191.02
-189.797
-188.49
-187.017
-185.411
-183.643
-181.704
-179.562
-177.195
-174.569
-171.645
-168.394
-164.755
-160.709
-156.182
-151.146
-145.531
-139.319
-132.41
-124.809
-116.399
-107.223
-97.2985
-86.7213
-75.5975
-64.0978
-52.4491
-40.943
-29.9312
-19.7905
-10.8718
-3.47836
2.23143
6.26364
8.71562
9.78388
9.81089
9.19139
8.18238
6.99964
5.90003
4.8968
4.09471
3.45424
2.99421
2.63732
2.38127
2.16653
1.99995
1.80753
1.5673
1.23944
1.03004
36.2675
34.423
33.5727
33.117
32.9375
33.2481
34.4594
37.2958
42.1171
50.4523
61.4775
77.1884
95.1521
117.194
139.374
163.32
183.03
193.47
210.535
214.544
204.362
160.557
77.157
-25.8431
-103.496
-165.542
-229.937
-279.855
-310.808
-332.584
-349.62
-364.023
-377.352
-390.64
-402.735
-413.113
-421.851
-429.079
-434.842
-439.165
-441.71
-442.145
-441.998
-440.106
-437.391
-433.073
-427.48
-420.79
-411.184
-399.706
-386.762
-372.341
-356.387
-337.488
-315.455
-292.609
-270.156
-246.279
-225.847
-213.313
-207.136
-204.338
-202.5
-201.389
-200.114
-198.968
-198.406
-198.258
-198.249
-198.302
-198.384
-198.512
-198.6
-198.713
-198.782
-198.886
-198.971
-199.072
-199.165
-199.242
-199.316
-199.391
-199.468
-199.546
-199.625
-199.708
-199.79
-199.883
-199.973
-200.08
-200.191
-200.312
-200.438
-200.568
-200.689
-200.814
-200.941
-201.068
-201.197
-201.305
-201.414
-201.514
-201.615
-201.71
-201.797
-201.868
-201.926
-201.966
-201.999
-202.019
-202.03
-202.027
-202.005
-201.957
-201.883
-201.777
-201.65
-201.5
-201.328
-201.11
-200.864
-200.589
-200.318
-200.023
-199.745
-199.457
-199.205
-198.952
-198.724
-198.491
-198.277
-198.006
-197.566
-196.943
-196.184
-195.367
-194.331
-193.007
-191.924
-191.026
-189.798
-188.491
-187.015
-185.408
-183.639
-181.698
-179.554
-177.185
-174.557
-171.631
-168.378
-164.737
-160.69
-156.16
-151.122
-145.505
-139.291
-132.381
-124.778
-116.366
-107.19
-97.2654
-86.6889
-75.5664
-64.0689
-52.4232
-40.921
-29.9139
-19.7785
-10.8657
-3.47853
2.22486
6.25058
8.69591
9.75755
9.77815
9.15259
8.1379
6.95076
5.84848
4.84521
4.04516
3.40874
2.95761
2.61692
2.38182
2.17999
2.02041
1.82832
1.58929
1.2612
1.05231
36.2847
34.4385
33.5888
33.1332
32.9539
33.2645
34.4757
37.3115
42.1317
50.465
61.4869
77.1945
95.1542
117.191
139.373
163.33
183.056
193.495
210.555
214.454
204.153
160.269
77.0099
-25.8074
-103.54
-165.782
-229.87
-279.512
-310.688
-332.503
-349.553
-363.962
-377.285
-390.567
-402.655
-413.029
-421.762
-428.987
-434.743
-439.063
-441.604
-442.037
-441.884
-439.988
-437.266
-432.943
-427.34
-420.641
-411.041
-399.56
-386.619
-372.186
-356.232
-337.342
-315.351
-292.486
-270.053
-246.132
-225.577
-212.853
-206.873
-204.269
-202.498
-201.409
-200.147
-198.997
-198.418
-198.26
-198.248
-198.298
-198.379
-198.507
-198.596
-198.71
-198.779
-198.885
-198.97
-199.072
-199.165
-199.244
-199.319
-199.394
-199.472
-199.551
-199.63
-199.714
-199.797
-199.89
-199.981
-200.088
-200.2
-200.322
-200.448
-200.578
-200.7
-200.825
-200.953
-201.079
-201.208
-201.316
-201.426
-201.527
-201.627
-201.722
-201.809
-201.88
-201.939
-201.979
-202.011
-202.032
-202.042
-202.04
-202.018
-201.97
-201.896
-201.791
-201.665
-201.515
-201.344
-201.127
-200.882
-200.609
-200.339
-200.045
-199.767
-199.481
-199.228
-198.974
-198.746
-198.511
-198.293
-198.016
-197.57
-196.946
-196.186
-195.366
-194.328
-193.012
-191.935
-191.026
-189.792
-188.485
-187.006
-185.398
-183.627
-181.684
-179.539
-177.167
-174.538
-171.61
-168.355
-164.712
-160.662
-156.13
-151.089
-145.471
-139.255
-132.343
-124.739
-116.327
-107.15
-97.2257
-86.6504
-75.53
-64.0354
-52.3936
-40.8963
-29.8947
-19.7655
-10.8591
-3.47853
2.21852
6.23811
8.67745
9.73331
9.7484
9.11759
8.09762
6.90586
5.79983
4.79458
3.9945
3.36027
2.91311
2.57777
2.35685
2.17073
2.02723
1.84071
1.60482
1.27641
1.06821
36.2968
34.4494
33.6003
33.1449
32.9659
33.2764
34.4875
37.3226
42.1411
50.4722
61.4896
77.1928
95.1471
117.178
139.361
163.336
183.082
193.523
210.587
214.352
203.9
159.922
76.8275
-25.7147
-103.412
-165.872
-229.869
-279.201
-310.54
-332.396
-349.473
-363.894
-377.213
-390.487
-402.563
-412.935
-421.661
-428.883
-434.631
-438.947
-441.484
-441.917
-441.755
-439.856
-437.124
-432.797
-427.183
-420.473
-410.881
-399.399
-386.463
-372.017
-356.065
-337.189
-315.258
-292.384
-269.983
-246.057
-225.343
-212.447
-206.489
-204.147
-202.481
-201.427
-200.183
-199.032
-198.432
-198.264
-198.246
-198.294
-198.374
-198.502
-198.592
-198.708
-198.778
-198.884
-198.97
-199.072
-199.167
-199.247
-199.323
-199.399
-199.478
-199.558
-199.638
-199.722
-199.805
-199.899
-199.99
-200.098
-200.211
-200.332
-200.459
-200.589
-200.712
-200.837
-200.965
-201.092
-201.221
-201.329
-201.439
-201.539
-201.64
-201.734
-201.821
-201.892
-201.95
-201.991
-202.023
-202.044
-202.054
-202.052
-202.029
-201.982
-201.908
-201.803
-201.678
-201.529
-201.358
-201.142
-200.899
-200.627
-200.359
-200.066
-199.79
-199.504
-199.252
-198.997
-198.767
-198.529
-198.306
-198.021
-197.57
-196.943
-196.182
-195.358
-194.32
-193.013
-191.942
-191.019
-189.78
-188.472
-186.99
-185.38
-183.607
-181.662
-179.515
-177.142
-174.509
-171.579
-168.322
-164.677
-160.624
-156.09
-151.048
-145.427
-139.209
-132.296
-124.69
-116.278
-107.101
-97.1782
-86.6048
-75.4873
-63.9967
-52.3598
-40.8684
-29.8735
-19.7514
-10.8522
-3.47865
2.21198
6.22574
8.65965
9.71056
9.72111
9.08596
8.06143
6.8654
5.75535
4.74715
3.94532
3.31145
2.86652
2.53546
2.31941
2.14274
2.01333
1.8396
1.61395
1.28667
1.07948
36.3036
34.4566
33.6084
33.1533
32.9745
33.285
34.4959
37.33
42.1463
50.4745
61.486
77.1836
95.1301
117.156
139.334
163.335
183.108
193.557
210.638
214.239
203.599
159.502
76.6045
-25.588
-103.189
-165.698
-229.785
-278.995
-310.379
-332.265
-349.362
-363.809
-377.128
-390.393
-402.457
-412.825
-421.541
-428.762
-434.499
-438.811
-441.342
-441.778
-441.603
-439.704
-436.957
-432.63
-426.999
-420.28
-410.694
-399.218
-386.286
-371.832
-355.881
-337.028
-315.173
-292.311
-269.943
-246.074
-225.185
-212.092
-205.974
-203.943
-202.443
-201.44
-200.222
-199.071
-198.449
-198.268
-198.242
-198.29
-198.369
-198.496
-198.588
-198.705
-198.777
-198.884
-198.971
-199.073
-199.169
-199.25
-199.327
-199.405
-199.484
-199.565
-199.646
-199.731
-199.815
-199.909
-200.001
-200.11