/*--------------------------------*- C++ -*----------------------------------*\
| =========                 |                                                 |
| \\      /  F ield         | OpenFOAM: The Open Source CFD Toolbox           |
|  \\    /   O peration     | Version:  2212                                  |
|   \\  /    A nd           | Website:  www.openfoam.com                      |
|    \\/     M anipulation  |                                                 |
\*---------------------------------------------------------------------------*/
FoamFile
{
    version     2.0;
    format      ascii;
    arch        "LSB;label=32;scalar=64";
    class       volScalarField;
    location    "5000";
    object      p_e;
}
// * * * * * * * * * * * * * * * * * * * * * * * * * * * * * * * * * * * * * //

dimensions      [0 0 0 0 0 0 0];

internalField   nonuniform List<scalar> 
10368
(
0.000167803
0.000171846
0.00016815
0.000163233
0.000159875
0.00015564
0.000151608
0.000145341
0.000137523
0.00012519
0.000111275
9.12698e-05
7.21879e-05
4.90503e-05
3.01895e-05
1.25156e-05
5.57307e-06
7.87864e-09
4.43639e-08
1.41504e-05
7.3085e-05
0.000224738
0.000422532
0.000559709
0.000603817
0.0006436
0.000667717
0.000644476
0.00060071
0.000565774
0.000535079
0.000513003
0.000495141
0.000484349
0.000469276
0.000457227
0.000441096
0.000429266
0.000412417
0.000399839
0.000380483
0.00036643
0.000348874
0.000334756
0.000316853
0.000301022
0.00028211
0.000263081
0.000237244
0.000214117
0.00018901
0.000164261
0.000135128
0.00010122
6.8449e-05
4.25699e-05
1.81329e-05
1.59144e-06
1.13112e-06
3.38632e-06
2.64362e-06
1.77573e-06
1.2498e-06
9.91278e-07
8.19381e-07
4.58562e-07
2.24408e-07
1.3755e-07
1.13953e-07
1.16209e-07
1.25404e-07
1.51408e-07
1.85785e-07
2.18133e-07
2.4957e-07
2.82578e-07
3.26094e-07
3.742e-07
4.34508e-07
4.96698e-07
5.59182e-07
6.26469e-07
7.00265e-07
7.81697e-07
8.68779e-07
9.63528e-07
1.0633e-06
1.17159e-06
1.28583e-06
1.40691e-06
1.54399e-06
1.69316e-06
1.85972e-06
2.04765e-06
2.24702e-06
2.45178e-06
2.67361e-06
2.91197e-06
3.18158e-06
3.46429e-06
3.74726e-06
4.04655e-06
4.36145e-06
4.70388e-06
5.07462e-06
5.46856e-06
5.8789e-06
6.29769e-06
6.7262e-06
7.17853e-06
7.65561e-06
8.1692e-06
8.71979e-06
9.29407e-06
9.8871e-06
1.04789e-05
1.10637e-05
1.16603e-05
1.22902e-05
1.2922e-05
1.3508e-05
1.40347e-05
1.45391e-05
1.50265e-05
1.54886e-05
1.59398e-05
1.64032e-05
1.6931e-05
1.75232e-05
1.82164e-05
1.9103e-05
2.03734e-05
2.20811e-05
2.37692e-05
2.50054e-05
2.63958e-05
2.80398e-05
2.85887e-05
2.80169e-05
2.84659e-05
3.02013e-05
3.11603e-05
3.20923e-05
3.28763e-05
3.35859e-05
3.42013e-05
3.47341e-05
3.51565e-05
3.54608e-05
3.56145e-05
3.56142e-05
3.53864e-05
3.49509e-05
3.43865e-05
3.37569e-05
3.2913e-05
3.16523e-05
2.97054e-05
2.69867e-05
2.3596e-05
1.96574e-05
1.53843e-05
1.09768e-05
6.7839e-06
3.20433e-06
7.55805e-07
2.41281e-08
1.62009e-06
6.05957e-06
1.36296e-05
2.4206e-05
3.72152e-05
5.16771e-05
6.66144e-05
8.08873e-05
9.37995e-05
0.000104741
0.000114003
0.000121116
0.000126834
0.000130655
0.000133814
0.000135447
0.000137077
0.000137246
0.000137943
0.000137123
0.000137241
0.000135766
0.000135583
0.000133706
0.000134004
0.0057922
0.00593795
0.00581128
0.00564217
0.00552685
0.0053817
0.00524456
0.00503156
0.00476749
0.00434917
0.00387919
0.00319848
0.00255006
0.00175477
0.00110247
0.000475847
0.000216759
2.05032e-06
1.1083e-07
0.000481324
0.00233878
0.00705201
0.0132516
0.0178293
0.0196487
0.0211171
0.0220336
0.0215179
0.020252
0.0191653
0.0181761
0.0174525
0.0168545
0.0164953
0.0159992
0.0156071
0.0150747
0.0146871
0.0141281
0.0137165
0.013078
0.0126135
0.0120279
0.0115617
0.0109659
0.0104451
0.00981584
0.00919653
0.0083481
0.00758337
0.0067465
0.00592186
0.00495241
0.00381592
0.00268229
0.00175173
0.000838753
0.000131057
9.78599e-06
8.10748e-05
7.59576e-05
5.554e-05
4.04255e-05
3.23571e-05
2.66808e-05
1.50711e-05
7.56754e-06
4.74099e-06
3.96798e-06
4.06944e-06
4.41198e-06
5.31996e-06
6.51359e-06
7.63528e-06
8.73112e-06
9.89442e-06
1.14122e-05
1.3096e-05
1.51807e-05
1.73348e-05
1.95133e-05
2.18624e-05
2.44393e-05
2.72792e-05
3.03216e-05
3.3629e-05
3.71225e-05
4.09115e-05
4.49207e-05
4.91873e-05
5.39952e-05
5.92313e-05
6.50598e-05
7.15958e-05
7.85309e-05
8.56848e-05
9.34177e-05
0.000101725
0.000111042
0.000120806
0.000130627
0.000141
0.000151923
0.000163763
0.000176536
0.00019008
0.000204169
0.000218573
0.000233338
0.000248907
0.000265321
0.00028293
0.000301734
0.000321307
0.000341465
0.000361605
0.000381552
0.000401887
0.000423186
0.00044448
0.000464311
0.000482338
0.000499623
0.00051641
0.000532446
0.000548264
0.00056458
0.000583043
0.00060372
0.000627867
0.000658305
0.000700315
0.000756272
0.000811449
0.0008523
0.00089756
0.00094884
0.000966804
0.000952234
0.000967009
0.00102215
0.00105297
0.00108269
0.00110763
0.00113001
0.00114921
0.00116553
0.00117808
0.00118655
0.00118993
0.00118801
0.00117845
0.0011619
0.00114084
0.00111739
0.00108666
0.00104195
0.000974613
0.000882022
0.000767556
0.000635643
0.000493514
0.00034802
0.000210908
9.56358e-05
1.95766e-05
2.34201e-06
6.43074e-05
0.000222626
0.000486786
0.000852444
0.00130025
0.00179704
0.0023098
0.0027999
0.00324389
0.00362069
0.00394015
0.00418599
0.00438394
0.00451647
0.0046261
0.00468296
0.00473963
0.00474571
0.00476997
0.0047418
0.0047459
0.00469502
0.00468865
0.00462391
0.00463443
0.0521792
0.053965
0.0528499
0.0513549
0.0503356
0.0490537
0.0478493
0.045977
0.043665
0.0399777
0.0358379
0.0297718
0.0239749
0.0167477
0.010758
0.00483637
0.00225349
5.24348e-05
3.70748e-06
0.0043888
0.0199057
0.0580303
0.10745
0.144211
0.16043
0.172278
0.179628
0.177232
0.168869
0.161124
0.153817
0.148361
0.143748
0.140984
0.137184
0.1342
0.130073
0.127081
0.122691
0.11949
0.114451
0.110764
0.10605
0.102316
0.0974822
0.0932828
0.0881218
0.0831282
0.076178
0.0698327
0.0627864
0.0558033
0.0475556
0.0377608
0.027607
0.0188931
0.0100005
0.00225014
1.00705e-06
0.00046705
0.000568606
0.000461117
0.000348763
0.000282046
0.000232014
0.000132371
6.83334e-05
4.38135e-05
3.70639e-05
3.82354e-05
4.16517e-05
5.01574e-05
6.12751e-05
7.17079e-05
8.19547e-05
9.29537e-05
0.000107156
0.000122963
0.000142288
0.000162298
0.00018267
0.000204668
0.000228804
0.000255369
0.000283878
0.000314843
0.000347654
0.000383212
0.000420954
0.000461275
0.000506501
0.000555786
0.000610474
0.000671416
0.000736092
0.000803094
0.000875355
0.000952947
0.00103921
0.00112958
0.0012209
0.00131722
0.00141872
0.00152835
0.0016462
0.00177087
0.00190039
0.002033
0.00216919
0.00231261
0.00246371
0.00262522
0.00279698
0.00297534
0.00315854
0.00334177
0.00352362
0.00370878
0.00390111
0.00409277
0.00427199
0.00443679
0.004595
0.00474939
0.00489796
0.00504594
0.00519914
0.00537141
0.00556389
0.00578798
0.00606599
0.00643448
0.00692414
0.00740054
0.00775906
0.00814905
0.00856996
0.00872706
0.00863932
0.00876757
0.00922797
0.00948993
0.00973927
0.00994777
0.0101326
0.0102887
0.0104181
0.0105131
0.0105705
0.0105824
0.0105453
0.01044
0.0102721
0.0100623
0.0098286
0.00952857
0.00910414
0.00848225
0.00764238
0.00661485
0.00544112
0.00418633
0.00291284
0.0017256
0.000745247
0.000126458
4.33797e-05
0.000676168
0.0021758
0.00462474
0.00798152
0.0120711
0.0165937
0.0212522
0.0256996
0.0297273
0.0331454
0.0360425
0.0382738
0.0400704
0.0412751
0.0422706
0.0427897
0.0433043
0.0433637
0.0435844
0.0433343
0.0433724
0.0429175
0.0428605
0.0422814
0.0423781
0.22448
0.235996
0.231864
0.226253
0.222405
0.217538
0.212952
0.205759
0.196806
0.182227
0.165553
0.140254
0.115337
0.0828772
0.0549746
0.025964
0.012432
0.000524792
0.000128788
0.0211517
0.0875299
0.232637
0.3919
0.489269
0.528824
0.553609
0.567842
0.563899
0.547383
0.531294
0.51571
0.503774
0.493423
0.487208
0.47854
0.471698
0.46195
0.454843
0.4441
0.436258
0.423473
0.413955
0.401399
0.39136
0.377935
0.366129
0.351081
0.336451
0.315163
0.294966
0.271556
0.247535
0.218093
0.181306
0.140049
0.101689
0.0596798
0.0177184
0.000606274
0.00116207
0.00216821
0.00201029
0.00159176
0.00130309
0.00106978
0.000617087
0.000328452
0.000215969
0.000184805
0.000191846
0.000210019
0.000252556
0.00030783
0.000359614
0.00041076
0.000466288
0.000537215
0.000616422
0.000711977
0.000811137
0.000912789
0.00102271
0.00114333
0.0012759
0.00141842
0.00157307
0.00173744
0.00191542
0.00210492
0.0023081
0.00253492
0.00278215
0.00305552
0.00335815
0.00367936
0.00401346
0.00437284
0.00475834
0.00518301
0.0056277
0.00607904
0.00655421
0.00705501
0.00759387
0.00817071
0.00877927
0.00941038
0.0100573
0.0107226
0.0114219
0.0121577
0.0129407
0.0137694
0.0146273
0.0155054
0.0163841
0.0172573
0.0181442
0.0190569
0.0199627
0.0208127
0.0216023
0.0223604
0.0231032
0.0238223
0.0245444
0.0252937
0.0261304
0.0270624
0.0281421
0.0294579
0.0311237
0.0333648
0.0354611
0.0370787
0.0387956
0.0405443
0.0412435
0.0410245
0.041585
0.0435176
0.0446371
0.0456793
0.0465402
0.0472859
0.0478952
0.0483742
0.0486884
0.048824
0.0487485
0.0484363
0.0478119
0.0468983
0.0457789
0.0445262
0.0429553
0.0408163
0.0378075
0.0338575
0.0291026
0.0237358
0.0180583
0.0123609
0.00712271
0.00289452
0.000376179
0.000351685
0.00362858
0.0108799
0.0224623
0.0381499
0.0570857
0.0778254
0.0989504
0.118874
0.136695
0.151638
0.16415
0.173703
0.181319
0.186417
0.190587
0.192785
0.194924
0.195222
0.196142
0.195179
0.195347
0.193556
0.193332
0.191035
0.191432
0.542273
0.56309
0.556967
0.548419
0.542496
0.534884
0.527599
0.515932
0.501031
0.475736
0.445301
0.395354
0.341564
0.262805
0.186474
0.0959217
0.0481369
0.00321719
0.00128642
0.0698476
0.246731
0.531688
0.755602
0.852911
0.885177
0.901323
0.908927
0.903705
0.888211
0.873693
0.860178
0.849928
0.841085
0.835916
0.828492
0.822633
0.813992
0.807767
0.798168
0.791283
0.779409
0.770548
0.758403
0.748678
0.735089
0.722995
0.706865
0.691083
0.666496
0.642056
0.612005
0.579532
0.537117
0.478815
0.403549
0.32225
0.217947
0.0849873
0.0083763
0.00123022
0.00546738
0.00611856
0.0051338
0.00426829
0.00350026
0.00204431
0.00112648
0.000761772
0.00066008
0.000689927
0.000759169
0.00091153
0.00110837
0.00129239
0.0014752
0.00167601
0.00192961
0.00221369
0.00255163
0.00290311
0.00326597
0.00365884
0.00408991
0.00456292
0.00507214
0.005624
0.00621211
0.00684821
0.00752732
0.00825765
0.00906856
0.00995203
0.0109245
0.0119932
0.0131268
0.0143096
0.0155773
0.0169339
0.0184132
0.01996
0.0215347
0.0231876
0.0249274
0.0267894
0.0287714
0.0308533
0.0330051
0.0352098
0.0374748
0.0398474
0.0423346
0.0449639
0.0477264
0.0505697
0.053462
0.0563487
0.0592101
0.0620999
0.065035
0.067925
0.0706335
0.0731635
0.0755822
0.0779503
0.0802459
0.0825598
0.0849561
0.087609
0.0905453
0.0939201
0.0979454
0.102743
0.109493
0.115188
0.119745
0.124411
0.128781
0.130562
0.130309
0.131739
0.136548
0.139286
0.141721
0.143631
0.145167
0.146279
0.146973
0.147142
0.146795
0.14579
0.144067
0.141439
0.137964
0.133817
0.129128
0.123423
0.116101
0.106474
0.0944563
0.0803963
0.0648118
0.0485806
0.0325559
0.0181072
0.00679788
0.000581847
0.00162782
0.0121644
0.0340374
0.0681191
0.113391
0.166747
0.22333
0.27869
0.328633
0.37132
0.405631
0.433211
0.453651
0.469445
0.479911
0.488216
0.49271
0.496871
0.497701
0.499496
0.498018
0.498385
0.49543
0.495066
0.491181
0.491897
0.829254
0.843178
0.838758
0.832274
0.827784
0.821905
0.816152
0.806737
0.79436
0.772589
0.745119
0.696554
0.639015
0.541953
0.429293
0.258389
0.143456
0.0145035
0.00746516
0.167143
0.4613
0.78508
0.997894
1.04987
1.0633
1.06684
1.06648
1.0604
1.04815
1.03771
1.02901
1.02284
1.0178
1.01513
1.01111
1.00803
1.00327
1.00006
0.994148
0.990248
0.982764
0.977426
0.969733
0.963842
0.955074
0.947436
0.936675
0.926563
0.909243
0.891718
0.869289
0.845218
0.812875
0.765322
0.696236
0.612124
0.486245
0.259558
0.0496735
8.13659e-05
0.0097572
0.0146714
0.0133352
0.0113304
0.00930221
0.00551269
0.00316293
0.00220848
0.00194065
0.00204389
0.00226102
0.00271032
0.00328641
0.00382444
0.00436167
0.00495878
0.00570382
0.00654047
0.00752076
0.00854239
0.00960428
0.0107548
0.012016
0.0133963
0.014883
0.0164904
0.0182059
0.0200568
0.0220356
0.0241657
0.0265141
0.0290654
0.0318543
0.0348889
0.0380982
0.0414461
0.0450108
0.0488019
0.0528799
0.0571227
0.061436
0.0659318
0.0706364
0.0756222
0.0808736
0.0863376
0.0919335
0.0976312
0.103444
0.109475
0.115733
0.12226
0.129018
0.135874
0.142747
0.149525
0.156161
0.16276
0.169305
0.175623
0.181455
0.186864
0.191947
0.196864
0.201577
0.206303
0.211151
0.216453
0.222256
0.228844
0.236499
0.244961
0.257721
0.266393
0.273684
0.280715
0.286204
0.287919
0.287508
0.289198
0.295174
0.297991
0.300123
0.301287
0.301685
0.301244
0.299933
0.297576
0.294309
0.289676
0.283707
0.276086
0.266901
0.256258
0.24414
0.229902
0.212845
0.192234
0.168213
0.141245
0.112103
0.0824068
0.0537352
0.0285485
0.00962826
0.000376753
0.00452995
0.0259237
0.0676532
0.130755
0.212291
0.305249
0.399978
0.488571
0.564843
0.626987
0.674733
0.71134
0.737581
0.75699
0.769724
0.779355
0.784819
0.789468
0.790909
0.792925
0.79208
0.792568
0.790381
0.790122
0.787064
0.787711
0.988718
0.996965
0.994701
0.990964
0.988447
0.985059
0.981625
0.975867
0.968049
0.953981
0.935697
0.901853
0.860237
0.784177
0.684215
0.492792
0.322341
0.0509066
0.029053
0.284085
0.61385
0.890715
1.1117
1.13997
1.14474
1.14151
1.13638
1.12892
1.11635
1.10593
1.09797
1.09269
1.08859
1.08676
1.08377
1.08164
1.07803
1.07589
1.07216
1.07017
1.06549
1.0625
1.05781
1.05466
1.0494
1.04522
1.03873
1.03346
1.02298
1.0126
0.998835
0.982874
0.961794
0.929963
0.88038
0.817959
0.72278
0.500378
0.16727
0.00580981
0.0112486
0.0286558
0.0294665
0.0259312
0.0214255
0.0129323
0.00779357
0.00565136
0.00504639
0.00536092
0.00596261
0.00713629
0.00861857
0.01001
0.0114015
0.0129656
0.014891
0.0170551
0.0195478
0.0221474
0.0248633
0.0278018
0.0310118
0.0345063
0.03826
0.0422949
0.0465912
0.0511947
0.0561012
0.0613588
0.0670831
0.0732451
0.0798881
0.0869937
0.0944278
0.102114
0.110177
0.118617
0.127491
0.136586
0.145717
0.155076
0.164711
0.174721
0.185038
0.195549
0.206085
0.216621
0.227169
0.237892
0.248773
0.259835
0.270978
0.281956
0.292634
0.30288
0.312627
0.322023
0.330945
0.339192
0.346488
0.353066
0.35899
0.364543
0.369694
0.374795
0.379953
0.385554
0.391637
0.398513
0.406315
0.414489
0.427481
0.432566
0.437559
0.441648
0.442246
0.44025
0.438682
0.43859
0.439562
0.438196
0.435895
0.432532
0.42819
0.422783
0.416226
0.408461
0.399451
0.388695
0.376316
0.361955
0.34571
0.327415
0.306713
0.283236
0.256777
0.227176
0.195014
0.16063
0.124761
0.0893413
0.0561985
0.0280863
0.00810444
3.03565e-05
0.00800917
0.0362876
0.0882301
0.16494
0.263296
0.375786
0.491495
0.600734
0.695288
0.772047
0.830349
0.873978
0.904664
0.926526
0.941402
0.95194
0.958184
0.962974
0.965068
0.967126
0.967213
0.967793
0.966904
0.966814
0.965283
0.965736
1.0568
1.06268
1.06177
1.0598
1.05856
1.05682
1.05495
1.05172
1.04718
1.0389
1.02814
1.00791
0.980885
0.927102
0.855267
0.696276
0.531816
0.13602
0.0770681
0.356633
0.65622
0.859352
1.1688
1.18282
1.18321
1.17567
1.16726
1.15925
1.14704
1.13644
1.12874
1.12391
1.12027
1.11897
1.11667
1.1153
1.11244
1.11115
1.10802
1.10691
1.10308
1.10101
1.09716
1.09513
1.09089
1.08812
1.08277
1.07957
1.07121
1.06314
1.0519
1.04122
1.02803
1.00898
0.973739
0.927249
0.865431
0.693768
0.346463
0.0441845
0.00561671
0.0437824
0.0554695
0.0520195
0.0437736
0.0271165
0.0174185
0.0132398
0.0120529
0.0129339
0.0144604
0.0172854
0.0207367
0.0240388
0.0273156
0.0310324
0.0355319
0.0405733
0.0462567
0.0521594
0.0583226
0.0649423
0.0720971
0.0797856
0.0879502
0.0965936
0.105682
0.115246
0.125293
0.135873
0.147107
0.158922
0.1713
0.184116
0.197176
0.210347
0.223759
0.237358
0.251113
0.264793
0.278145
0.291435
0.304742
0.318143
0.331497
0.344662
0.357411
0.36981
0.381879
0.393829
0.40559
0.41714
0.428338
0.438885
0.448673
0.457655
0.46578
0.473222
0.479692
0.485088
0.489274
0.492758
0.495455
0.497726
0.499548
0.501357
0.503178
0.505309
0.507736
0.510669
0.513979
0.518433
0.523306
0.519698
0.518265
0.515458
0.507425
0.500252
0.497123
0.494433
0.486709
0.479632
0.471469
0.462623
0.45286
0.442102
0.430499
0.417703
0.403638
0.388059
0.371034
0.352298
0.331964
0.309686
0.28494
0.257827
0.228691
0.197906
0.166232
0.133817
0.101222
0.0701353
0.0420866
0.0193121
0.00433478
0.000247789
0.0104797
0.0386125
0.0877105
0.15953
0.253058
0.363903
0.483725
0.603322
0.712585
0.805293
0.87794
0.933033
0.972066
1.00029
1.0178
1.0296
1.03672
1.04177
1.0444
1.0465
1.04723
1.04787
1.04788
1.0479
1.04745
1.04776
1.0881
1.09418
1.09391
1.09269
1.09203
1.09099
1.08978
1.08753
1.08424
1.07801
1.06989
1.05387
1.03489
0.998305
0.94568
0.820114
0.689547
0.265454
0.143611
0.371439
0.619522
0.7562
1.13513
1.19529
1.19714
1.18758
1.17705
1.1687
1.15723
1.14587
1.1376
1.13255
1.12869
1.12752
1.12546
1.12455
1.12196
1.12119
1.1184
1.118
1.11477
1.11345
1.1101
1.109
1.10542
1.10393
1.09927
1.09797
1.09159
1.08579
1.07665
1.06791
1.05772
1.04473
1.01952
0.983907
0.945861
0.821186
0.512907
0.133291
0.000491071
0.0469979
0.084825
0.0891372
0.0782081
0.0504587
0.0354673
0.0287323
0.0268235
0.0291403
0.0327345
0.039066
0.0463172
0.0535694
0.0605567
0.0685078
0.0778998
0.0882882
0.0996256
0.111206
0.123125
0.135657
0.148853
0.162619
0.176821
0.191356
0.206173
0.221193
0.236471
0.251984
0.267768
0.283687
0.2996
0.315243
0.330523
0.34534
0.359821
0.373853
0.387312
0.400186
0.412283
0.423956
0.435312
0.4464
0.457037
0.467148
0.476516
0.485389
0.49378
0.501934
0.509687
0.516985
0.523691
0.529486
0.534367
0.538406
0.541534
0.543958
0.545188
0.54528
0.544233
0.542875
0.540866
0.538627
0.536072
0.533703
0.531378
0.529292
0.527314
0.525501
0.523373
0.525894
0.518447
0.507506
0.500324
0.491446
0.476398
0.466592
0.462988
0.458731
0.443733
0.433282
0.421536
0.409695
0.397149
0.384134
0.370545
0.35588
0.340417
0.323863
0.306296
0.287566
0.267781
0.246582
0.223484
0.19884
0.173178
0.14701
0.120984
0.0951428
0.0699086
0.0465628
0.0262613
0.0106294
0.00150824
0.00113845
0.0120634
0.0370705
0.0788398
0.139516
0.219656
0.31768
0.428791
0.546659
0.662158
0.767414
0.855451
0.925726
0.97758
1.01417
1.04059
1.05848
1.06926
1.07644
1.0804
1.08324
1.0846
1.08549
1.08606
1.08616
1.08631
1.08657
1.09657
1.10255
1.10262
1.10202
1.1018
1.10128
1.10058
1.09909
1.09681
1.09217
1.08632
1.07379
1.05857
1.02654
0.987488
0.882535
0.779292
0.39027
0.208086
0.359689
0.551616
0.654367
0.982617
1.18557
1.19734
1.18852
1.17705
1.16855
1.15885
1.14641
1.13687
1.13099
1.12627
1.12483
1.12258
1.1219
1.11919
1.11872
1.11582
1.1159
1.11285
1.11201
1.10862
1.10817
1.10466
1.10418
1.09952
1.09968
1.09469
1.09074
1.08297
1.07632
1.06892
1.06282
1.04492
1.01486
0.996589
0.91061
0.644757
0.251824
0.0145212
0.0300491
0.0976456
0.122807
0.115713
0.0801431
0.0641701
0.0568522
0.0550231
0.0607342
0.0685444
0.0813593
0.0945797
0.108791
0.12169
0.136168
0.152588
0.170205
0.188428
0.206329
0.224089
0.242
0.259973
0.277775
0.295239
0.312147
0.328561
0.344263
0.359543
0.374294
0.388491
0.402042
0.414764
0.426385
0.437171
0.447168
0.456523
0.465058
0.472605
0.479541
0.485709
0.491549
0.497116
0.502432
0.507261
0.511635
0.515312
0.518715
0.521769
0.524771
0.527394
0.529574
0.531217
0.531946
0.531882
0.531188
0.529693
0.527705
0.524551
0.520459
0.51542
0.51061
0.505365
0.500205
0.49488
0.489968
0.485102
0.480446
0.47569
0.470712
0.466234
0.467123
0.449357
0.435335
0.425406
0.413593
0.395484
0.386972
0.383912
0.379502
0.360938
0.350187
0.337903
0.325896
0.313852
0.301479
0.288551
0.275063
0.261064
0.246378
0.231044
0.215007
0.198338
0.180743
0.161831
0.142005
0.121755
0.101552
0.0818884
0.0627875
0.0445941
0.0282447
0.0146065
0.00484154
0.000282491
0.00252622
0.0134571
0.0352352
0.0701241
0.120222
0.186698
0.269438
0.366101
0.473252
0.584573
0.693398
0.791574
0.875837
0.94229
0.993788
1.02948
1.05621
1.07321
1.08431
1.09053
1.09469
1.09687
1.09822
1.09928
1.09948
1.10013
1.10035
1.09346
1.09829
1.0982
1.09802
1.09803
1.09778
1.09735
1.09624
1.09452
1.09063
1.08615
1.07537
1.06342
1.0357
1.00296
0.910159
0.823438
0.480187
0.264807
0.346928
0.48661
0.56284
0.713734
1.14891
1.18429
1.18215
1.17171
1.16391
1.1584
1.14539
1.13433
1.12722
1.12116
1.11906
1.11627
1.11568
1.11258
1.11229
1.10893
1.10928
1.10608
1.10557
1.1017
1.10173
1.09774
1.09817
1.09288
1.09417
1.09002
1.08781
1.08072
1.07578
1.0698
1.06954
1.06074
1.03545
1.03003
0.983701
0.756188
0.374743
0.0553123
0.00803855
0.0788516
0.126571
0.133718
0.103275
0.0980451
0.0978163
0.0998758
0.112315
0.127638
0.149259
0.168799
0.191386
0.210625
0.231063
0.252845
0.275103
0.296348
0.315918
0.334238
0.35169
0.368052
0.383125
0.396936
0.409292
0.42059
0.430503
0.439754
0.448094
0.455535
0.462034
0.467435
0.471507
0.474938
0.477816
0.480285
0.48204
0.482867
0.483542
0.483719
0.483953
0.484139
0.484324
0.484187
0.483893
0.483231
0.482558
0.481804
0.48109
0.480068
0.478684
0.476725
0.473944
0.470698
0.467063
0.463077
0.458737
0.453496
0.447563
0.441243
0.43527
0.429007
0.42312
0.417103
0.41164
0.406108
0.400749
0.395061
0.389758
0.386045
0.381272
0.360226
0.346362
0.336248
0.324239
0.306309
0.301217
0.298899
0.295202
0.27608
0.266731
0.255586
0.245073
0.235117
0.224375
0.213504
0.202308
0.190793
0.178858
0.166513
0.153765
0.140647
0.126941
0.112353
0.0972523
0.0820429
0.0671249
0.05286
0.0392862
0.026693
0.0157574
0.00713602
0.00167407
0.000348785
0.00433484
0.015062
0.0342191
0.0636688
0.105269
0.160306
0.229297
0.311232
0.404508
0.505301
0.609221
0.709295
0.80158
0.880003
0.943492
0.99262
1.02862
1.05402
1.07209
1.08269
1.0895
1.09311
1.09546
1.09707
1.09747
1.09854
1.09877
1.08718
1.08891
1.08819
1.08831
1.08839
1.0882
1.08786
1.08681
1.08531
1.08149
1.07768
1.06725
1.05744
1.03193
1.00523
0.920723
0.843717
0.542322
0.319106
0.343543
0.43912
0.48975
0.457908
1.06149
1.14665
1.16673
1.16058
1.15337
1.15657
1.14511
1.13309
1.12475
1.11713
1.11403
1.11039
1.10976
1.10611
1.10594
1.10197
1.10247
1.09899
1.09884
1.09425
1.09476
1.08993
1.09136
1.08507
1.08736
1.08365
1.08349
1.07664
1.07342
1.06745
1.07183
1.07142
1.05219
1.05679
1.04503
0.858831
0.495344
0.120335
0.00236956
0.0416383
0.0941915
0.117244
0.105414
0.120527
0.137929
0.151118
0.173962
0.198646
0.227211
0.249402
0.275603
0.2987
0.319874
0.340701
0.360885
0.37812
0.392597
0.405102
0.416267
0.425732
0.433456
0.43975
0.444451
0.448323
0.450816
0.453097
0.454598
0.45542
0.455425
0.454501
0.452418
0.450207
0.447814
0.445381
0.442499
0.438871
0.435683
0.432213
0.429466
0.426552
0.423775
0.420698
0.417719
0.414795
0.411956
0.409473
0.406917
0.404023
0.400824
0.396767
0.392249
0.387597
0.382663
0.378075
0.373059
0.367629
0.361556
0.355971
0.350457
0.344967
0.339655
0.3344
0.329378
0.324464
0.319502
0.314368
0.310038
0.305568
0.296124
0.276349
0.264175
0.2551
0.244176
0.228434
0.226404
0.224955
0.221856
0.203946
0.196354
0.186866
0.178594
0.170465
0.161764
0.153088
0.144227
0.135164
0.125859
0.116296
0.106523
0.0965409
0.0862046
0.0752959
0.0641356
0.0530447
0.0423534
0.0323269
0.02302
0.0146739
0.0077761
0.00283453
0.000473981
0.00142632
0.0065885
0.0170695
0.0342012
0.0594988
0.0945387
0.140539
0.198257
0.267373
0.347272
0.435757
0.530317
0.62585
0.719211
0.804052
0.877964
0.93595
0.984272
1.01888
1.04458
1.06222
1.07396
1.08029
1.08463
1.08705
1.08794
1.08947
1.08978
1.08016
1.07811
1.07662
1.07691
1.07698
1.07673
1.07641
1.07527
1.07386
1.06978
1.0664
1.05565
1.04738
1.02235
1.00228
0.924873
0.853961
0.590411
0.376015
0.352422
0.412109
0.439641
0.32212
0.858085
1.07431
1.13622
1.14451
1.14011
1.15391
1.14466
1.1328
1.12419
1.11548
1.11121
1.10649
1.10573
1.10152
1.10144
1.09685
1.09741
1.0936
1.09396
1.08851
1.08963
1.08364
1.0863
1.0787
1.08201
1.07821
1.08066
1.07362
1.07279
1.06567
1.07398
1.08029
1.06827
1.07575
1.10344
0.95924
0.614827
0.209315
0.0181301
0.0117216
0.0502429
0.0778316
0.0879282
0.118891
0.155452
0.183831
0.218088
0.24934
0.2796
0.299682
0.321444
0.344251
0.362805
0.377933
0.392027
0.402198
0.409425
0.41472
0.419052
0.421787
0.422996
0.423167
0.422058
0.420733
0.418268
0.416242
0.4136
0.410649
0.407014
0.402951
0.397921
0.392793
0.387864
0.383191
0.378054
0.372659
0.367562
0.362823
0.359114
0.354996
0.351002
0.346522
0.342119
0.338097
0.334378
0.331276
0.328047
0.324458
0.320574
0.315829
0.311069
0.306311
0.301426
0.297125
0.292379
0.287491
0.282105
0.277637
0.27319
0.269311
0.264935
0.261005
0.256815
0.252955
0.248705
0.244475
0.240127
0.23418
0.223518
0.206113
0.195974
0.188259
0.178592
0.16607
0.166068
0.165626
0.162273
0.146643
0.140568
0.132924
0.126664
0.120055
0.113272
0.106532
0.0997053
0.0927545
0.085682
0.0784568
0.0711506
0.0637445
0.0561487
0.0482081
0.040192
0.0323546
0.0249636
0.0182115
0.012165
0.00702414
0.0031413
0.000914522
0.000807184
0.00339173
0.00936539
0.0196041
0.035165
0.0572771
0.0872527
0.126178
0.174879
0.233403
0.301661
0.378446
0.462491
0.550301
0.639839
0.725646
0.805314
0.872735
0.928472
0.972843
1.00791
1.03176
1.05055
1.06155
1.06945
1.07333
1.07533
1.07749
1.07804
1.0704
1.06769
1.06566
1.06586
1.06587
1.06549
1.06516
1.06385
1.06252
1.05807
1.05506
1.04382
1.03717
1.01211
0.998422
0.928818
0.862204
0.633235
0.438399
0.374097
0.404806
0.411981
0.283855
0.601024
0.928488
1.07667
1.11775
1.12469
1.14988
1.14507
1.1343
1.12551
1.11549
1.11004
1.10438
1.10352
1.09901
1.09915
1.09417
1.09471
1.09063
1.09169
1.08541
1.08735
1.07995
1.08409
1.07495
1.07945
1.07476
1.08058
1.07263
1.07536
1.06577
1.07791
1.088
1.08651
1.08744
1.15573
1.05086
0.739589
0.319368
0.0537718
0.00146557
0.0168806
0.0398641
0.0638259
0.0989431
0.144559
0.183792
0.225183
0.258913
0.286375
0.302478
0.317821
0.336013
0.352038
0.363148
0.370644
0.375668
0.377134
0.378132
0.378492
0.377606
0.375534
0.372691
0.369143
0.365503
0.361353
0.357558
0.353528
0.349368
0.344369
0.339481
0.333835
0.327659
0.322031
0.316855
0.310819
0.305393
0.299144
0.294413
0.290229
0.285776
0.281362
0.276434
0.271539
0.267241
0.263501
0.260296
0.256915
0.253269
0.249293
0.244705
0.240248
0.235897
0.231695
0.228026
0.223962
0.219721
0.215358
0.211993
0.208716
0.206102
0.202786
0.2
0.196875
0.193841
0.190216
0.186392
0.182026
0.175605
0.164734
0.149839
0.141581
0.135187
0.126686
0.117551
0.118679
0.119177
0.115099
0.102186
0.0973226
0.0915342
0.0866884
0.081505
0.0763454
0.0712311
0.066099
0.0609006
0.0556667
0.0503582
0.0450567
0.0397319
0.0343385
0.0287713
0.0232518
0.0179802
0.0131678
0.00895441
0.00541744
0.00271836
0.001112
0.000906485
0.00246471
0.00623813
0.0127783
0.0227852
0.0371005
0.0567214
0.0827296
0.116065
0.157542
0.207405
0.265844
0.332269
0.406203
0.485341
0.568546
0.651554
0.732385
0.805175
0.86957
0.921023
0.963596
0.996019
1.02098
1.03741
1.05069
1.05729
1.06151
1.06465
1.06574
1.05892
1.05838
1.05627
1.05616
1.05609
1.05554
1.0552
1.0537
1.05246
1.0477
1.04505
1.03354
1.02882
1.00393
0.996662
0.935836
0.872694
0.67543
0.507734
0.40857
0.416328
0.406464
0.263844
0.461962
0.720206
0.947917
1.07048
1.10417
1.13874
1.14336
1.13689
1.12924
1.11859
1.11178
1.10486
1.10341
1.09841
1.09837
1.09318
1.09367
1.08965
1.09169
1.08499
1.08796
1.07911
1.08495
1.07416
1.0802
1.07359
1.08365
1.07371
1.08159
1.06788
1.08486
1.09372
1.10809
1.09269
1.19909
1.13795
0.869897
0.446325
0.110034
0.0103208
0.00151915
0.0153994
0.0428717
0.0739645
0.117808
0.16061
0.202947
0.235871
0.258503
0.270823
0.282632
0.296437
0.308863
0.3193
0.320602
0.323785
0.321716
0.321594
0.32069
0.318849
0.316073
0.312418
0.308828
0.304563
0.300908
0.296599
0.292719
0.288531
0.28343
0.278411
0.272779
0.266692
0.261281
0.256193
0.250128
0.244838
0.238428
0.234014
0.229784
0.225393
0.220864
0.215963
0.211216
0.207083
0.203537
0.200435
0.197128
0.193631
0.189797
0.185561
0.18156
0.177744
0.174259
0.17124
0.167878
0.164344
0.160964
0.158592
0.156431
0.154653
0.152378
0.150492
0.14826
0.145899
0.142814
0.139362
0.135062
0.128503
0.118015
0.105525
0.0988712
0.0936745
0.0863393
0.080156
0.0818197
0.0829831
0.0783278
0.0681186
0.064222
0.0601293
0.0562961
0.0524046
0.0485955
0.0448353
0.041106
0.0373561
0.0336319
0.0298928
0.0262201
0.0225801
0.0189617
0.015301
0.0117757
0.00854352
0.00576508
0.00354203
0.0019601
0.00113699
0.00126456
0.00258567
0.00539164
0.0100388
0.016971
0.0267503
0.0400468
0.0576711
0.0805092
0.109361
0.144993
0.187752
0.237959
0.295419
0.360155
0.430729
0.506624
0.584693
0.663647
0.737919
0.807535
0.866724
0.91726
0.955022
0.987734
1.00984
1.02805
1.0387
1.04691
1.0516
1.05379
1.05112
1.05046
1.0487
1.04823
1.04807
1.04731
1.04699
1.04529
1.04419
1.0393
1.03701
1.02575
1.02331
0.999107
0.998182
0.947367
0.887404
0.719221
0.58468
0.455687
0.44649
0.423161
0.26735
0.374697
0.579413
0.727982
0.988925
1.06875
1.10869
1.13156
1.13655
1.1332
1.12404
1.11634
1.10851
1.10609
1.10077
1.1001
1.09489
1.09478
1.09077
1.09336
1.08631
1.09034
1.08052
1.08819
1.07605
1.08403
1.07456
1.08964
1.07643
1.09122
1.07152
1.09565
1.09675
1.13275
1.0933
1.23046
1.21996
1.00026
0.588415
0.189496
0.035742
0.00225178
0.00533414
0.0287639
0.0516582
0.0881083
0.130019
0.168923
0.19916
0.216683
0.226116
0.235749
0.247449
0.257441
0.26613
0.264533
0.266613
0.26369
0.26355
0.2626
0.260899
0.258407
0.255093
0.252111
0.248295
0.245452
0.241559
0.238277
0.23435
0.229764
0.224955
0.219485
0.21394
0.209097
0.204223
0.198589
0.193247
0.18743
0.183374
0.179248
0.17504
0.17057
0.165854
0.161363
0.157476
0.154176
0.151237
0.148088
0.144814
0.141221
0.137399
0.133875
0.130592
0.127753
0.125315
0.122593
0.11972
0.117192
0.11563
0.114346
0.113239
0.111795
0.11061
0.109078
0.10725
0.104627
0.101515
0.0973833
0.0910042
0.0813268
0.0710793
0.0657655
0.0615939
0.055554
0.0516647
0.0534593
0.0549646
0.0501499
0.0424321
0.0394169
0.0366436
0.0336919
0.0309164
0.028233
0.0256037
0.0230396
0.0204924
0.0180124
0.015565
0.0132221
0.0109547
0.00877817
0.00666424
0.00474972
0.00315962
0.00200566
0.00135809
0.00130893
0.00194243
0.00340799
0.00589397
0.00964002
0.0149284
0.0221201
0.0316665
0.0440983
0.0600765
0.080324
0.105516
0.136359
0.173243
0.216537
0.266292
0.322844
0.385388
0.453796
0.525862
0.600946
0.674253
0.745718
0.809798
0.867677
0.913653
0.951555
0.979337
1.00352
1.01745
1.03101
1.03797
1.04223
1.04406
1.04471
1.04298
1.04214
1.04189
1.0409
1.04063
1.03875
1.03783
1.03309
1.03116
1.02076
1.02087
0.997867
1.00273
0.963671
0.907313
0.765774
0.66975
0.514998
0.495568