/*--------------------------------*- C++ -*----------------------------------*\
| =========                 |                                                 |
| \\      /  F ield         | OpenFOAM: The Open Source CFD Toolbox           |
|  \\    /   O peration     | Version:  2212                                  |
|   \\  /    A nd           | Website:  www.openfoam.com                      |
|    \\/     M anipulation  |                                                 |
\*---------------------------------------------------------------------------*/
FoamFile
{
    version     2.0;
    format      ascii;
    arch        "LSB;label=32;scalar=64";
    class       surfaceScalarField;
    location    "5000";
    object      phi;
}
// * * * * * * * * * * * * * * * * * * * * * * * * * * * * * * * * * * * * * //

dimensions      [0 3 -1 0 0 0 0];

oriented        oriented;

internalField   nonuniform List<scalar> 
20490
(
1.63119e-06
1.63185e-06
1.61084e-06
1.59061e-06
1.57157e-06
1.55068e-06
1.52374e-06
1.48631e-06
1.43021e-06
1.35498e-06
1.24896e-06
1.11856e-06
9.53715e-07
7.63911e-07
5.41115e-07
3.5001e-07
1.3067e-07
-2.25851e-08
2.1309e-07
7.78622e-07
1.50721e-06
2.28045e-06
2.82965e-06
3.06354e-06
3.16002e-06
3.23892e-06
3.23095e-06
3.13669e-06
3.03194e-06
2.94322e-06
2.87114e-06
2.81564e-06
2.77563e-06
2.73812e-06
2.69832e-06
2.65611e-06
2.61414e-06
2.56976e-06
2.5239e-06
2.47242e-06
2.41804e-06
2.36564e-06
2.3117e-06
2.25583e-06
2.19538e-06
2.13106e-06
2.059e-06
1.96814e-06
1.86648e-06
1.76019e-06
1.64365e-06
1.50673e-06
1.32764e-06
1.11052e-06
8.85202e-07
6.29547e-07
2.91911e-07
-3.21811e-08
-2.08858e-07
-2.30654e-07
-1.90843e-07
-1.56686e-07
-1.34207e-07
-1.21198e-07
-1.00905e-07
-7.28482e-08
-5.30379e-08
-4.43249e-08
-4.23478e-08
-4.33285e-08
-4.62536e-08
-5.11495e-08
-5.59718e-08
-6.03471e-08
-6.42959e-08
-6.88022e-08
-7.3776e-08
-7.93042e-08
-8.5163e-08
-9.07051e-08
-9.61242e-08
-1.01683e-07
-1.07472e-07
-1.13428e-07
-1.19507e-07
-1.25707e-07
-1.31976e-07
-1.38413e-07
-1.44846e-07
-1.51624e-07
-1.58793e-07
-1.6635e-07
-1.74457e-07
-1.82946e-07
-1.9137e-07
-1.99874e-07
-2.08674e-07
-2.17959e-07
-2.27723e-07
-2.37228e-07
-2.46664e-07
-2.56212e-07
-2.66071e-07
-2.76378e-07
-2.87047e-07
-2.97855e-07
-3.08619e-07
-3.19211e-07
-3.29873e-07
-3.40758e-07
-3.51996e-07
-3.63712e-07
-3.75718e-07
-3.87792e-07
-3.99702e-07
-4.11152e-07
-4.22345e-07
-4.33655e-07
-4.45087e-07
-4.55801e-07
-4.65388e-07
-4.7398e-07
-4.82207e-07
-4.89811e-07
-4.97104e-07
-5.04135e-07
-5.11782e-07
-5.20192e-07
-5.29792e-07
-5.41256e-07
-5.56798e-07
-5.77944e-07
-6.01221e-07
-6.20565e-07
-6.37159e-07
-6.56363e-07
-6.70568e-07
-6.69648e-07
-6.67944e-07
-6.81837e-07
-6.97553e-07
-7.08604e-07
-7.18407e-07
-7.26911e-07
-7.34387e-07
-7.40875e-07
-7.46292e-07
-7.50482e-07
-7.53265e-07
-7.54426e-07
-7.53643e-07
-7.50436e-07
-7.452e-07
-7.39296e-07
-7.32071e-07
-7.21304e-07
-7.04217e-07
-6.77667e-07
-6.40591e-07
-5.93232e-07
-5.34903e-07
-4.64844e-07
-3.82314e-07
-2.86788e-07
-1.77822e-07
-5.55342e-08
7.92539e-08
2.24488e-07
3.76912e-07
5.31912e-07
6.83833e-07
8.26962e-07
9.57002e-07
1.07089e-06
1.16695e-06
1.24516e-06
1.30762e-06
1.35621e-06
1.39296e-06
1.41978e-06
1.43895e-06
1.4521e-06
1.46084e-06
1.46582e-06
1.46806e-06
1.46791e-06
1.46593e-06
1.46249e-06
1.45791e-06
1.45257e-06
1.44805e-06
7.3222e-08
-6.62353e-10
5.08512e-06
2.10155e-08
5.08723e-06
2.02254e-08
5.02176e-06
1.90399e-08
4.95871e-06
2.08935e-08
4.89945e-06
2.69393e-08
4.83469e-06
3.74271e-08
4.75153e-06
5.60989e-08
4.63636e-06
7.52346e-08
4.46416e-06
1.06019e-07
4.23328e-06
1.30394e-07
3.90851e-06
1.64847e-07
3.50844e-06
1.89804e-07
3.00326e-06
2.22797e-07
2.41946e-06
1.91105e-07
1.73371e-06
2.1934e-07
1.13667e-06
1.53255e-07
4.4546e-07
-2.35675e-07
-2.19957e-08
-5.65532e-07
6.801e-07
-7.28589e-07
2.38445e-06
-7.73243e-07
4.56344e-06
-5.49194e-07
6.88473e-06
-2.33889e-07
8.56624e-06
-9.64834e-08
9.34751e-06
-7.8904e-08
9.69344e-06
7.9765e-09
9.9538e-06
9.42614e-08
9.96121e-06
1.04742e-07
9.70754e-06
8.87229e-08
9.40342e-06
7.20815e-08
9.13797e-06
5.54997e-08
8.91913e-06
4.00082e-08
8.74855e-06
3.75094e-08
8.62454e-06
3.98016e-08
8.50961e-06
4.22113e-08
8.38849e-06
4.19657e-08
8.25992e-06
4.43851e-08
8.13194e-06
4.58561e-08
7.99641e-06
5.14869e-08
7.85653e-06
5.43726e-08
7.7e-06
5.24046e-08
7.53476e-06
5.39435e-08
7.37409e-06
5.58657e-08
7.20994e-06
6.04508e-08
7.03938e-06
6.43153e-08
6.85595e-06
7.20655e-08
6.6607e-06
9.08598e-08
6.44255e-06
1.01661e-07
6.1706e-06
1.06289e-07
5.86437e-06
1.16535e-07
5.5435e-06
1.36928e-07
5.19196e-06
1.79087e-07
4.78039e-06
2.17116e-07
4.2452e-06
2.25322e-07
3.59443e-06
2.55655e-07
2.91038e-06
3.37636e-07
2.12893e-06
3.24092e-07
1.0931e-06
1.76676e-07
6.569e-08
2.17958e-08
-5.38776e-07
-3.98112e-08
-6.59595e-07
-3.41577e-08
-5.68191e-07
-2.24789e-08
-4.74483e-07
-1.30101e-08
-4.09664e-07
-2.02931e-08
-3.6952e-07
-2.8057e-08
-3.07916e-07
-1.98104e-08
-2.24015e-07
-8.71321e-09
-1.64638e-07
-1.97725e-09
-1.38299e-07
9.80617e-10
-1.32466e-07
2.92502e-09
-1.3574e-07
4.89582e-09
-1.45045e-07
4.82231e-09
-1.60157e-07
4.3752e-09
-1.75246e-07
3.94882e-09
-1.88753e-07
4.50623e-09
-2.01233e-07
4.97389e-09
-2.1526e-07
5.52822e-09
-2.30847e-07
5.85879e-09
-2.48044e-07
5.54206e-09
-2.66213e-07
5.41912e-09
-2.83493e-07
5.55843e-09
-3.00426e-07
5.78917e-09
-3.17805e-07
5.95608e-09
-3.35893e-07
6.07913e-09
-3.54501e-07
6.20055e-09
-3.73517e-07
6.26887e-09
-3.92894e-07
6.43698e-09
-4.12553e-07
6.4325e-09
-4.32679e-07
6.77831e-09
-4.52916e-07
7.16955e-09
-4.74169e-07
7.55666e-09
-4.96647e-07
8.10682e-09
-5.20315e-07
8.48963e-09
-5.45631e-07
8.42369e-09
-5.72061e-07
8.5037e-09
-5.98372e-07
8.8005e-09
-6.24946e-07
9.28504e-09
-6.52411e-07
9.76325e-09
-6.81355e-07
9.50566e-09
-7.11606e-07
9.43606e-09
-7.41217e-07
9.54784e-09
-7.70576e-07
9.85839e-09
-8.00332e-07
1.03071e-08
-8.31009e-07
1.06694e-08
-8.6303e-07
1.08075e-08
-8.96101e-07
1.07648e-08
-9.29593e-07
1.05916e-08
-9.62939e-07
1.06621e-08
-9.95829e-07
1.08851e-08
-1.02893e-06
1.12382e-08
-1.06272e-06
1.17156e-08
-1.09757e-06
1.20057e-08
-1.13381e-06
1.20748e-08
-1.17089e-06
1.19101e-08
-1.20814e-06
1.14494e-08
-1.24484e-06
1.11933e-08
-1.28022e-06
1.13101e-08
-1.3148e-06
1.1432e-08
-1.3497e-06
1.07135e-08
-1.38475e-06
9.58722e-09
-1.41769e-06
8.59266e-09
-1.44725e-06
8.22666e-09
-1.47399e-06
7.60428e-09
-1.49947e-06
7.29306e-09
-1.52329e-06
7.03088e-09
-1.54609e-06
7.64756e-09
-1.56839e-06
8.4094e-09
-1.59242e-06
9.60064e-09
-1.61895e-06
1.14638e-08
-1.64903e-06
1.55424e-08
-1.68495e-06
2.11454e-08
-1.73265e-06
2.32776e-08
-1.7964e-06
1.93442e-08
-1.86646e-06
1.6594e-08
-1.92488e-06
1.92039e-08
-1.97532e-06
1.42059e-08
-2.0322e-06
-9.19864e-10
-2.07328e-06
-1.70464e-09
-2.07249e-06
1.38938e-08
-2.06975e-06
1.57161e-08
-2.11012e-06
1.10507e-08
-2.15722e-06
9.80315e-09
-2.18998e-06
8.50397e-09
-2.21913e-06
7.47648e-09
-2.24425e-06
6.48865e-09
-2.26624e-06
5.41625e-09
-2.28512e-06
4.19044e-09
-2.30066e-06
2.78316e-09
-2.31236e-06
1.16085e-09
-2.31964e-06
-7.82591e-10
-2.32189e-06
-3.2071e-09
-2.31802e-06
-5.2361e-09
-2.3067e-06
-5.90414e-09
-2.28895e-06
-7.22547e-09
-2.26903e-06
-1.07672e-08
-2.24483e-06
-1.7087e-08
-2.20966e-06
-2.65502e-08
-2.15482e-06
-3.70751e-08
-2.07096e-06
-4.73591e-08
-1.95455e-06
-5.83297e-08
-1.80659e-06
-7.00584e-08
-1.62492e-06
-8.25304e-08
-1.40728e-06
-9.55261e-08
-1.15135e-06
-1.08966e-07
-8.55541e-07
-1.22287e-07
-5.18481e-07
-1.34788e-07
-1.40539e-07
-1.45234e-07
2.75777e-07
-1.52423e-07
7.24206e-07
-1.55e-07
1.19482e-06
-1.51921e-07
1.67349e-06
-1.43129e-07
2.1429e-06
-1.3004e-07
2.5855e-06
-1.13892e-07
2.98799e-06
-9.6061e-08
3.34087e-06
-7.82036e-08
3.63891e-06
-6.24669e-08
3.88194e-06
-4.85818e-08
4.07632e-06
-3.67557e-08
4.2277e-06
-2.68149e-08
4.34242e-06
-1.91704e-08
4.42617e-06
-1.31489e-08
4.48612e-06
-8.74622e-09
4.52725e-06
-4.97997e-09
4.55462e-06
-2.23768e-09
4.5702e-06
1.46877e-10
4.57719e-06
1.98181e-09
4.57673e-06
3.43735e-09
4.57052e-06
4.58383e-09
4.55975e-06
5.34144e-09
4.5454e-06
4.52052e-09
4.52871e-06
-8.18512e-10
4.51462e-06
2.55303e-07
-2.76534e-09
9.12471e-06
8.64852e-08
9.12816e-06
8.32728e-08
9.01075e-06
7.82956e-08
8.8976e-06
8.56586e-08
8.79137e-06
1.10098e-07
8.67565e-06
1.52595e-07
8.52761e-06
2.283e-07
8.32321e-06
3.06113e-07
8.01805e-06
4.30795e-07
7.60928e-06
5.30464e-07
7.03444e-06
6.70026e-07
6.32606e-06
7.73601e-07
5.43138e-06
9.08543e-07
4.39546e-06
7.88144e-07
3.176e-06
9.10555e-07
2.10253e-06
6.20711e-07
8.55566e-07
-9.37771e-07
2.48599e-08
-2.26988e-06
1.24487e-06
-2.90758e-06
4.21464e-06
-3.09454e-06
7.99188e-06
-2.2307e-06
1.20299e-05
-1.01517e-06
1.49991e-05
-4.42412e-07
1.64545e-05
-3.39263e-07
1.71301e-05
5.69131e-10
1.76169e-05
3.47931e-07
1.76719e-05
4.08861e-07
1.72734e-05
3.54172e-07
1.6764e-05
2.90923e-07
1.63073e-05
2.26076e-07
1.59261e-05
1.64022e-07
1.56259e-05
1.52439e-07
1.54065e-05
1.6092e-07
1.52046e-05
1.70779e-07
1.4993e-05
1.69944e-07
1.47681e-05
1.79917e-07
1.4544e-05
1.85744e-07
1.43063e-05
2.08016e-07
1.40612e-05
2.19605e-07
1.37875e-05
2.13083e-07
1.34983e-05
2.18093e-07
1.32157e-05
2.2642e-07
1.29279e-05
2.43885e-07
1.26286e-05
2.59562e-07
1.23078e-05
2.90213e-07
1.19662e-05
3.62812e-07
1.15859e-05
4.0789e-07
1.11149e-05
4.2716e-07
1.05824e-05
4.68073e-07
1.00233e-05
5.48502e-07
9.41095e-06
7.14275e-07
8.69641e-06
8.67892e-07
7.77072e-06
9.09368e-07
6.6412e-06
1.0371e-06
5.44236e-06
1.37347e-06
4.06544e-06
1.3515e-06
2.22783e-06
7.81141e-07
3.57711e-07
1.42613e-07
-8.03512e-07
-1.31217e-07
-1.09766e-06
-1.27868e-07
-9.81287e-07
-8.72995e-08
-8.32608e-07
-5.31554e-08
-7.23482e-07
-8.18974e-08
-6.52738e-07
-1.11959e-07
-5.44455e-07
-7.91884e-08
-3.98211e-07
-3.50527e-08
-2.94657e-07
-7.81072e-09
-2.48488e-07
4.25377e-09
-2.38442e-07
1.22296e-08
-2.44619e-07
2.00083e-08
-2.6152e-07
1.9911e-08
-2.88535e-07
1.78818e-08
-3.15644e-07
1.64287e-08
-3.39805e-07
1.85333e-08
-3.62372e-07
2.05602e-08
-3.8759e-07
2.27252e-08
-4.15659e-07
2.40281e-08
-4.46503e-07
2.28225e-08
-4.79021e-07
2.23515e-08
-5.10052e-07
2.29383e-08
-5.40514e-07
2.3877e-08
-5.71794e-07
2.45642e-08
-6.04342e-07
2.50949e-08
-6.37823e-07
2.55776e-08
-6.72057e-07
2.59278e-08
-7.06944e-07
2.65637e-08
-7.42393e-07
2.66691e-08
-7.78656e-07
2.80316e-08
-8.15241e-07
2.9648e-08
-8.53603e-07
3.12239e-08
-8.94155e-07
3.34233e-08
-9.36813e-07
3.49196e-08
-9.82341e-07
3.47351e-08
-1.02977e-06
3.50773e-08
-1.07708e-06
3.6266e-08
-1.12489e-06
3.82285e-08
-1.17426e-06
4.00142e-08
-1.2262e-06
3.91166e-08
-1.28029e-06
3.8795e-08
-1.33339e-06
3.93038e-08
-1.38604e-06
4.05358e-08
-1.43944e-06
4.23281e-08
-1.49444e-06
4.37407e-08
-1.55176e-06
4.42995e-08
-1.61087e-06
4.41105e-08
-1.6707e-06
4.34817e-08
-1.73026e-06
4.37608e-08
-1.78911e-06
4.46775e-08
-1.84833e-06
4.60917e-08
-1.90879e-06
4.79549e-08
-1.97108e-06
4.90818e-08
-2.03573e-06
4.93269e-08
-2.10178e-06
4.86136e-08
-2.16807e-06
4.68246e-08
-2.23336e-06
4.57788e-08
-2.29638e-06
4.62036e-08
-2.35802e-06
4.64888e-08
-2.42009e-06
4.36541e-08
-2.48222e-06
3.91442e-08
-2.54067e-06
3.53312e-08
-2.59328e-06
3.37035e-08
-2.64115e-06
3.14279e-08
-2.68671e-06
3.00926e-08
-2.72958e-06
2.93366e-08
-2.77069e-06
3.16789e-08
-2.8112e-06
3.49335e-08
-2.85469e-06
3.96794e-08
-2.90269e-06
4.73929e-08
-2.95695e-06
6.32402e-08
-3.0216e-06
8.48952e-08
-3.10606e-06
9.33325e-08
-3.21758e-06
7.77666e-08
-3.33982e-06
6.70381e-08
-3.44196e-06
7.60799e-08
-3.53042e-06
5.52937e-08
-3.62832e-06
-1.71485e-09
-3.69818e-06
-4.43845e-09
-3.69925e-06
5.42607e-08
-3.69737e-06
6.28169e-08
-3.76657e-06
4.38104e-08
-3.84812e-06
3.89544e-08
-3.90467e-06
3.36279e-08
-3.955e-06
2.94665e-08
-3.99821e-06
2.53691e-08
-4.03586e-06
2.09573e-08
-4.06792e-06
1.5889e-08
-4.09399e-06
1.00655e-08
-4.11314e-06
3.41173e-09
-4.12435e-06
-4.65562e-09
-4.12656e-06
-1.45234e-08
-4.11773e-06
-2.29911e-08
-4.09565e-06
-2.58183e-08
-4.06192e-06
-3.14259e-08
-4.02414e-06
-4.59416e-08
-3.97846e-06
-7.19274e-08
-3.91311e-06
-1.10415e-07
-3.81259e-06
-1.53487e-07
-3.66058e-06
-1.95315e-07
-3.45066e-06
-2.40002e-07
-3.18476e-06
-2.87693e-07
-2.85903e-06
-3.3846e-07
-2.46953e-06
-3.91339e-07
-2.01208e-06
-4.46027e-07
-1.48386e-06
-5.00228e-07
-8.82449e-07
-5.51104e-07
-2.08498e-07
-5.93664e-07
5.33576e-07
-6.23034e-07
1.33273e-06
-6.3367e-07
2.17142e-06
-6.21333e-07
3.02465e-06
-5.85733e-07
3.86173e-06
-5.32527e-07
4.65146e-06
-4.66768e-07
5.37008e-06
-3.94104e-07
6.00059e-06
-3.21232e-07
6.53362e-06
-2.56855e-07
6.96873e-06
-1.99962e-07
7.31707e-06
-1.51468e-07
7.58857e-06
-1.10571e-07
7.79451e-06
-7.9112e-08
7.94495e-06
-5.42804e-08
8.05266e-06
-3.61169e-08
8.12656e-06
-2.05595e-08
8.17571e-06
-9.23573e-09
8.20364e-06
6.15646e-10
8.21611e-06
8.18926e-09
8.21515e-06
1.4202e-08
8.20386e-06
1.89328e-08
8.18438e-06
2.20404e-08
8.15847e-06
1.86027e-08
8.12838e-06
-3.421e-09
8.10309e-06
5.72779e-07
-6.21637e-09
1.41623e-05
2.03897e-07
1.41659e-05
1.96428e-07
1.39861e-05
1.84519e-07
1.38127e-05
2.01382e-07
1.365e-05
2.58141e-07
1.34731e-05
3.56996e-07
1.3247e-05
5.33453e-07
1.29355e-05
7.14883e-07
1.24703e-05
1.00563e-06
1.18471e-05
1.23884e-06
1.09697e-05
1.56471e-06
9.88732e-06
1.80952e-06
8.5174e-06
2.128e-06
6.92759e-06
1.86162e-06
5.04798e-06
2.15752e-06
3.37411e-06
1.45142e-06
1.42556e-06
-2.15778e-06
1.37735e-07
-5.23965e-06
1.97928e-06
-6.68482e-06
6.45775e-06
-7.13259e-06
1.21141e-05
-5.19987e-06
1.81669e-05
-2.4706e-06
2.26557e-05
-1.11798e-06
2.49226e-05
-8.26047e-07
2.59985e-05
-5.44416e-08
2.67468e-05
7.46478e-07
2.68694e-05
9.18212e-07
2.63298e-05
8.10906e-07
2.56042e-05
6.7211e-07
2.49403e-05
5.26239e-07
2.43815e-05
3.83463e-07
2.39382e-05
3.54332e-07
2.36131e-05
3.72507e-07
2.33155e-05
3.95676e-07
2.30048e-05
3.94066e-07
2.26738e-05
4.17594e-07
2.23435e-05
4.30886e-07
2.19925e-05
4.81708e-07
2.16305e-05
5.0875e-07
2.12264e-05
4.95745e-07
2.07986e-05
5.05893e-07
2.03785e-05
5.25686e-07
1.99512e-05
5.64715e-07
1.95063e-05
6.01136e-07
1.903e-05
6.70499e-07
1.85224e-05
8.33838e-07
1.79588e-05
9.40358e-07
1.7263e-05
9.8627e-07
1.6473e-05
1.08043e-06
1.56407e-05
1.26305e-06
1.47284e-05
1.63997e-06
1.36662e-05
1.99742e-06
1.22924e-05
2.1082e-06
1.06068e-05
2.41402e-06
8.79839e-06
3.21107e-06
6.70736e-06
3.22163e-06
3.88644e-06
1.94236e-06
9.3726e-07
4.36753e-07
-9.8891e-07
-2.47588e-07
-1.57061e-06
-2.76549e-07
-1.4662e-06
-1.96428e-07
-1.26709e-06
-1.23902e-07
-1.10842e-06
-1.90182e-07
-1.00096e-06
-2.58203e-07
-8.3586e-07
-1.82744e-07
-6.14458e-07
-8.12224e-08
-4.57822e-07
-1.78573e-08
-3.87735e-07
1.04299e-08
-3.72772e-07
2.91302e-08
-3.82896e-07
4.70225e-08
-4.09516e-07
4.702e-08
-4.51532e-07
4.20421e-08
-4.93759e-07
3.89954e-08
-5.31372e-07
4.37517e-08
-5.66741e-07
4.86292e-08
-6.06172e-07
5.35694e-08
-6.50039e-07
5.65456e-08
-6.98102e-07
5.38536e-08
-7.48652e-07
5.28132e-08
-7.97037e-07
5.42185e-08
-8.44634e-07
5.64249e-08
-8.93535e-07
5.80455e-08
-9.44391e-07
5.93291e-08
-9.96716e-07
6.04649e-08
-1.05025e-06
6.13772e-08
-1.10481e-06
6.2827e-08
-1.1603e-06
6.32544e-08
-1.21708e-06
6.63937e-08
-1.27449e-06
7.02001e-08
-1.33465e-06
7.38817e-08
-1.39818e-06
7.89513e-08
-1.46495e-06
8.2352e-08
-1.53604e-06
8.20445e-08
-1.60997e-06
8.28835e-08
-1.68383e-06
8.56398e-08
-1.75851e-06
9.01641e-08
-1.83557e-06
9.41063e-08
-1.91646e-06
9.22166e-08
-2.00049e-06
9.14492e-08
-2.08312e-06
9.26975e-08
-2.16512e-06
9.5537e-08
-2.24828e-06
9.96457e-08
-2.33388e-06
1.02854e-07
-2.42295e-06
1.0413e-07
-2.51466e-06
1.03674e-07
-2.60742e-06
1.02325e-07
-2.69978e-06
1.02988e-07
-2.79114e-06
1.0513e-07
-2.8831e-06
1.0839e-07
-2.97695e-06
1.12602e-07
-3.07357e-06
1.15129e-07
-3.17363e-06
1.1562e-07
-3.27571e-06
1.13903e-07
-3.37805e-06
1.09845e-07
-3.4788e-06
1.07417e-07
-3.57618e-06
1.08279e-07
-3.67145e-06
1.08618e-07
-3.76719e-06
1.02101e-07
-3.86269e-06
9.17579e-08
-3.95259e-06
8.31966e-08
-4.03382e-06
7.92663e-08
-4.10804e-06
7.43015e-08
-4.17874e-06
7.11974e-08
-4.24555e-06
6.98564e-08
-4.30984e-06
7.51606e-08
-4.37353e-06
8.29386e-08
-4.44175e-06
9.39391e-08
-4.51697e-06
1.12042e-07
-4.60179e-06
1.47703e-07
-4.70243e-06
1.96416e-07
-4.83184e-06
2.15578e-07
-5.00101e-06
1.79903e-07
-5.1857e-06
1.55497e-07
-5.34002e-06
1.73987e-07
-5.47397e-06
1.25156e-07
-5.61961e-06
-6.44397e-10
-5.72266e-06
-6.32123e-09
-5.72765e-06
1.23461e-07
-5.72869e-06
1.44371e-07
-5.83181e-06
1.00364e-07
-5.95338e-06
8.92834e-08
-6.03769e-06
7.68363e-08
-6.11255e-06
6.71194e-08
-6.17655e-06
5.7431e-08
-6.23197e-06
4.70278e-08
-6.27868e-06
3.50412e-08
-6.31605e-06
2.12803e-08
-6.3426e-06
5.6153e-09
-6.35681e-06
-1.34875e-08
-6.35699e-06
-3.65992e-08
-6.33995e-06
-5.67217e-08
-6.30243e-06
-6.35949e-08
-6.24666e-06
-7.71084e-08
-6.1842e-06
-1.11298e-07
-6.10904e-06
-1.72445e-07
-6.0032e-06
-2.62423e-07
-5.84296e-06
-3.63412e-07
-5.60363e-06
-4.61213e-07
-5.27526e-06
-5.65735e-07
-4.86089e-06
-6.77193e-07
-4.35467e-06
-7.95912e-07
-3.75058e-06
-9.19557e-07
-3.04217e-06
-1.04743e-06
-2.22512e-06
-1.17418e-06
-1.29571e-06
-1.29318e-06
-2.54937e-07
-1.39281e-06
8.90447e-07
-1.46173e-06
2.12355e-06
-1.4869e-06
3.41758e-06
-1.45841e-06
4.73415e-06
-1.37547e-06
6.02623e-06
-1.25115e-06
7.2458e-06
-1.09727e-06
8.35615e-06
-9.27136e-07
9.33093e-06
-7.5634e-07
1.01557e-05
-6.05195e-07
1.08295e-05
-4.71469e-07
1.13693e-05
-3.57404e-07
1.17903e-05
-2.61013e-07
1.21099e-05
-1.86822e-07
1.23435e-05
-1.28184e-07
1.25108e-05
-8.5267e-08
1.26257e-05
-4.84841e-08
1.27021e-05
-2.17133e-08
1.27457e-05
1.57975e-09
1.27652e-05
1.94752e-08
1.27639e-05
3.3683e-08
1.27467e-05
4.48467e-08
1.27167e-05
5.21311e-08
1.26768e-05
4.38924e-08
1.26305e-05
-8.11984e-09
1.25916e-05
1.09419e-06
-9.77029e-09
2.0526e-05
3.83651e-07
2.05239e-05
3.69827e-07
2.02744e-05
3.47224e-07
2.00334e-05
3.78329e-07
1.98073e-05
4.84146e-07
1.95612e-05
6.68555e-07
1.92462e-05
9.98682e-07
1.88112e-05
1.338e-06
1.81596e-05
1.88312e-06
1.72848e-05
2.32118e-06
1.60475e-05
2.93463e-06
1.45157e-05
3.39933e-06
1.25649e-05
4.00761e-06
1.02881e-05
3.53549e-06
7.57192e-06
4.10607e-06
5.11756e-06
2.73924e-06
2.24651e-06
-3.99933e-06
3.58562e-07
-9.71812e-06
2.97309e-06
-1.23411e-05
9.30402e-06
-1.31854e-05
1.71972e-05
-9.68863e-06
2.56186e-05
-4.73754e-06
3.18623e-05
-2.19391e-06
3.5029e-05
-1.57429e-06
3.65216e-05
-1.77067e-07
3.75218e-05
1.2861e-06
3.76984e-05
1.64379e-06
3.69987e-05
1.47484e-06
3.60351e-05
1.23094e-06
3.51481e-05
9.69501e-07
3.44016e-05
7.08553e-07
3.38084e-05
6.51926e-07
3.33739e-05
6.8325e-07
3.29782e-05
7.26622e-07
3.25658e-05
7.24366e-07
3.21258e-05
7.68647e-07
3.16863e-05
7.92883e-07
3.12182e-05
8.85755e-07
3.07356e-05
9.36582e-07
3.01964e-05
9.15841e-07
2.9624e-05
9.33226e-07
2.90599e-05
9.70505e-07
2.84862e-05
1.04104e-06
2.78881e-05
1.10872e-06
2.72475e-05
1.2341e-06
2.65634e-05
1.52968e-06
2.58053e-05
1.73029e-06
2.48694e-05
1.81865e-06
2.3801e-05
1.99273e-06
2.26703e-05
2.32522e-06
2.14289e-05
3.01377e-06
1.99849e-05
3.68307e-06
1.81155e-05
3.91657e-06
1.58018e-05
4.50504e-06
1.32878e-05
6.032e-06
1.03529e-05
6.1708e-06
6.32328e-06
3.86853e-06
1.96577e-06
1.01845e-06
-1.03806e-06
-3.5201e-07
-2.0888e-06
-4.75654e-07
-2.05875e-06
-3.55106e-07
-1.81852e-06
-2.31364e-07
-1.60301e-06
-3.55283e-07
-1.44959e-06
-4.79607e-07
-1.21207e-06
-3.39381e-07
-8.95838e-07
-1.5131e-07
-6.72528e-07
-3.28211e-08
-5.72273e-07
2.05522e-08
-5.51349e-07
5.57502e-08
-5.67085e-07
8.90383e-08
-6.06732e-07
8.92463e-08
-6.68593e-07
7.9655e-08
-7.30772e-07
7.43633e-08
-7.86193e-07
8.31828e-08
-8.38593e-07
9.24957e-08
-8.96945e-07
1.01632e-07
-9.61781e-07
1.07096e-07
-1.03262e-06
1.02239e-07
-1.10695e-06
1.0041e-07
-1.17829e-06
1.0312e-07
-1.24864e-06
1.07281e-07
-1.32094e-06
1.10371e-07
-1.39611e-06
1.12862e-07
-1.47347e-06
1.15024e-07
-1.55263e-06
1.16874e-07
-1.63335e-06
1.19607e-07
-1.71551e-06
1.20663e-07
-1.7996e-06
1.26556e-07
-1.88481e-06
1.33726e-07
-1.97403e-06
1.40651e-07
-2.06815e-06
1.50039e-07
-2.16698e-06
1.56288e-07
-2.27189e-06
1.55907e-07
-2.38085e-06
1.57558e-07
-2.48984e-06
1.62703e-07
-2.60008e-06
1.71056e-07
-2.71376e-06
1.78136e-07
-2.83277e-06
1.74841e-07
-2.95608e-06
1.73448e-07
-3.07752e-06
1.75859e-07
-3.19813e-06
1.8114e-07
-3.32044e-06
1.8871e-07
-3.44624e-06
1.94566e-07
-3.57687e-06
1.96889e-07
-3.71117e-06
1.96035e-07
-3.84687e-06
1.93685e-07
-3.982e-06
1.94952e-07
-4.1158e-06
1.9898e-07
-4.25051e-06
2.05006e-07
-4.38791e-06
2.12669e-07
-4.52918e-06
2.17206e-07
-4.67517e-06
2.17957e-07
-4.82383e-06
2.14658e-07
-4.97266e-06
2.07221e-07
-5.1191e-06
2.02691e-07
-5.26074e-06
2.04022e-07
-5.39935e-06
2.04121e-07
-5.53827e-06
1.91999e-07
-5.67636e-06
1.72987e-07
-5.80634e-06
1.57416e-07
-5.9242e-06
1.4997e-07
-6.03228e-06
1.41113e-07
-6.13533e-06
1.35484e-07
-6.23304e-06
1.33553e-07
-6.32741e-06
1.43381e-07
-6.42128e-06
1.58152e-07
-6.52167e-06
1.78767e-07
-6.63213e-06
2.12677e-07
-6.75647e-06
2.77113e-07
-6.90321e-06
3.65587e-07
-7.08878e-06
4.00278e-07
-7.32959e-06
3.3422e-07
-7.59076e-06
2.89449e-07
-7.80805e-06
3.19624e-07
-7.9972e-06
2.28209e-07
-8.19889e-06
4.35339e-09
-8.34017e-06
-5.28717e-09
-8.35122e-06
2.26584e-07
-8.35764e-06
2.65946e-07
-8.50079e-06
1.84676e-07
-8.66873e-06
1.64141e-07
-8.78495e-06
1.40838e-07
-8.88756e-06
1.22539e-07
-8.97462e-06
1.04146e-07
-9.04913e-06
8.43951e-08
-9.11085e-06
6.15986e-08
-9.15874e-06
3.54925e-08
-9.19073e-06
5.79449e-09
-9.20464e-06
-3.05299e-08
-9.1979e-06
-7.41177e-08
-9.16585e-06
-1.12498e-07
-9.10401e-06
-1.26056e-07
-9.01518e-06
-1.52267e-07
-8.91554e-06
-2.17146e-07
-8.79622e-06
-3.32679e-07
-8.63164e-06
-5.01756e-07
-8.38834e-06
-6.91789e-07
-8.03179e-06
-8.75577e-07
-7.54787e-06
-1.07196e-06
-6.94088e-06
-1.28128e-06
-6.20241e-06
-1.50432e-06
-5.32395e-06
-1.73661e-06
-4.29623e-06
-1.97684e-06
-3.11304e-06
-2.21496e-06
-1.76905e-06
-2.43856e-06
-2.65751e-07
-2.62592e-06
1.38714e-06
-2.75575e-06
3.16537e-06
-2.80348e-06
5.03056e-06
-2.75048e-06
6.92791e-06
-2.59505e-06
8.79042e-06
-2.36149e-06
1.05497e-05
-2.07205e-06
1.21531e-05
-1.75188e-06
1.35626e-05
-1.43016e-06
1.47569e-05
-1.14501e-06
1.5734e-05
-8.92488e-07
1.65174e-05
-6.76968e-07
1.71287e-05
-4.94606e-07
1.75931e-05
-3.54151e-07
1.79327e-05
-2.43065e-07
1.81763e-05
-1.6171e-07
1.83439e-05
-9.20035e-08
1.84558e-05
-4.12682e-08
1.85203e-05
2.84681e-09
1.85503e-05
3.67393e-08
1.85504e-05
6.36316e-08
1.85276e-05
8.47544e-08
1.84866e-05
9.84732e-08
1.84314e-05
8.27392e-08
1.83668e-05
-1.54473e-08
1.83128e-05
2.19615e-06
-7.74272e-09
2.83835e-05
6.3323e-07
2.83665e-05
6.10798e-07
2.80425e-05
5.73346e-07
2.77293e-05
6.24444e-07
2.74354e-05
7.99146e-07
2.71151e-05
1.10354e-06
2.67039e-05
1.6503e-06
2.61346e-05
2.21271e-06
2.52785e-05
3.12047e-06
2.41258e-05
3.853e-06
2.24855e-05
4.88545e-06
2.0444e-05
5.67604e-06
1.78203e-05
6.72384e-06
1.47303e-05
5.98985e-06
1.0986e-05
6.97712e-06
7.5357e-06
4.62719e-06
3.44484e-06
-6.61385e-06
7.58274e-07
-1.6049e-05
4.3222e-06
-2.02343e-05
1.2886e-05
-2.16068e-05
2.33719e-05
-1.59323e-05
3.45592e-05
-7.90429e-06
4.28453e-05
-3.68647e-06
4.69983e-05
-2.57451e-06
4.89151e-05
-3.53641e-07
5.01515e-05
1.98581e-06
5.03565e-05
2.60733e-06
4.94546e-05
2.36189e-06
4.82052e-05
1.97744e-06
4.70575e-05
1.56264e-06
4.60971e-05
1.14312e-06
4.5336e-05
1.04759e-06
4.47807e-05
1.09563e-06
4.42784e-05
1.16666e-06
4.37561e-05
1.16388e-06
4.3198e-05
1.23673e-06
4.26408e-05
1.2755e-06
4.20486e-05
1.4249e-06
4.14396e-05
1.50902e-06
4.0759e-05
1.47994e-06
4.00348e-05
1.50695e-06
3.93198e-05
1.56855e-06
3.85932e-05
1.68167e-06
3.78353e-05
1.79277e-06
3.70231e-05
1.9922e-06
3.61547e-05
2.46565e-06
3.51943e-05
2.79866e-06
3.40069e-05
2.94931e-06
3.26438e-05
3.23412e-06
3.1196e-05
3.76924e-06
2.96045e-05
4.8832e-06
2.7756e-05
5.99675e-06
2.53595e-05
6.43058e-06
2.23658e-05
7.43996e-06
1.90753e-05
1.00616e-05
1.52046e-05
1.05283e-05
9.77594e-06
6.87235e-06
3.65428e-06
2.06918e-06
-8.37729e-07
-3.82069e-07
-2.63562e-06
-7.15882e-07
-2.79081e-06
-5.70622e-07
-2.53322e-06
-3.84793e-07
-2.25373e-06
-5.92802e-07
-2.04198e-06
-7.9584e-07
-1.7101e-06
-5.62693e-07
-1.27149e-06
-2.51567e-07
-9.62671e-07
-5.37456e-08
-8.23582e-07
3.6287e-08
-7.95348e-07
9.53962e-08
-8.1927e-07
1.50899e-07
-8.76891e-07
1.51424e-07
-9.65702e-07
1.35076e-07
-1.05492e-06
1.26762e-07
-1.13458e-06
1.41535e-07
-1.21025e-06
1.57332e-07
-1.29448e-06
1.7247e-07
-1.38792e-06
1.81423e-07
-1.48968e-06
1.73582e-07
-1.59618e-06
1.7076e-07
-1.69871e-06
1.7542e-07
-1.80007e-06
1.82458e-07
-1.90428e-06
1.87726e-07
-2.01258e-06
1.92018e-07
-2.12403e-06
1.95747e-07
-2.23809e-06
1.99031e-07
-2.35446e-06
2.03702e-07
-2.47298e-06
2.05874e-07
-2.59433e-06
2.15775e-07
-2.7175e-06
2.27844e-07
-2.84641e-06
2.3948e-07
-2.98215e-06
2.54955e-07
-3.12452e-06
2.65241e-07
-3.27521e-06
2.64897e-07
-3.43137e-06
2.67799e-07
-3.58775e-06
2.76386e-07
-3.74597e-06
2.90068e-07
-3.90893e-06
3.01444e-07
-4.07901e-06
2.96278e-07
-4.25474e-06
2.94062e-07
-4.42795e-06
2.98172e-07
-4.60011e-06
3.06938e-07
-4.77459e-06
3.19342e-07
-4.95384e-06
3.28859e-07
-5.13952e-06
3.32598e-07
-5.33002e-06
3.31163e-07
-5.52223e-06
3.27486e-07
-5.71356e-06
3.29659e-07
-5.90311e-06
3.36378e-07
-6.09388e-06
3.46276e-07
-6.28826e-06
3.58664e-07
-6.48776e-06
3.65859e-07
-6.69334e-06
3.66793e-07
-6.90215e-06
3.611e-07
-7.11074e-06
3.48865e-07
-7.31571e-06
3.41296e-07
-7.51395e-06
3.42941e-07
-7.70779e-06
3.42217e-07
-7.90136e-06
3.21973e-07
-8.09292e-06
2.90852e-07
-8.27295e-06
2.65497e-07
-8.43656e-06
2.53024e-07
-8.58689e-06
2.3882e-07
-8.73021e-06
2.29851e-07
-8.86632e-06
2.27425e-07
-8.99813e-06
2.43777e-07
-9.12961e-06
2.68617e-07
-9.27002e-06
3.03106e-07
-9.42418e-06
3.59418e-07
-9.59734e-06
4.62683e-07
-9.80064e-06
6.06401e-07
-1.00532e-05
6.61442e-07
-1.03802e-05
5.51512e-07
-1.07307e-05
4.78603e-07
-1.10184e-05
5.21316e-07
-1.12698e-05
3.69496e-07
-1.1532e-05
1.53992e-08
-1.17119e-05
1.13463e-09
-1.17281e-05
3.69739e-07
-1.1741e-05
4.33891e-07
-1.19271e-05
3.00893e-07
-1.21428e-05
2.66759e-07
-1.229e-05
2.27891e-07
-1.24184e-05
1.97056e-07
-1.25252e-05
1.65864e-07
-1.26144e-05
1.32295e-07
-1.26854e-05
9.358e-08
-1.27364e-05
4.94093e-08
-1.2765e-05
-9.50088e-10
-1.27681e-05
-6.25769e-08
-1.27418e-05
-1.35954e-07
-1.26798e-05
-2.01337e-07
-1.25763e-05
-2.25692e-07
-1.24342e-05
-2.71586e-07
-1.22744e-05
-3.81728e-07
-1.20843e-05
-5.7598e-07
-1.183e-05
-8.58314e-07
-1.14678e-05
-1.17571e-06
-1.09533e-05
-1.48257e-06
-1.02679e-05
-1.81044e-06
-9.41715e-06
-2.15974e-06
-8.38927e-06
-2.53203e-06
-7.17295e-06
-2.9198e-06
-5.75546e-06
-3.32083e-06
-4.12806e-06
-3.71826e-06
-2.28333e-06
-4.09145e-06
-2.23292e-07
-4.40415e-06
2.03866e-06
-4.62094e-06
4.46959e-06
-4.70083e-06
7.01816e-06
-4.613e-06
9.61239e-06
-4.35434e-06
1.21648e-05
-3.96491e-06
1.4585e-05
-3.48155e-06
1.68014e-05
-2.94618e-06
1.87598e-05
-2.40723e-06
2.0427e-05
-1.92838e-06
2.17961e-05
-1.50387e-06
2.28961e-05
-1.14128e-06
2.37558e-05
-8.34299e-07
2.44091e-05
-5.97702e-07
2.48874e-05
-4.10667e-07
2.52304e-05
-2.73634e-07
2.54671e-05
-1.56483e-07
2.56259e-05
-7.12243e-08
2.57189e-05
2.70625e-09
2.57642e-05
5.9573e-08
2.57688e-05
1.04581e-07
2.57419e-05
1.39996e-07
2.56906e-05
1.63024e-07
2.56198e-05
1.3679e-07
2.55362e-05
-2.61143e-08
2.54664e-05
1.22812e-06
9.25389e-09
3.79055e-05
9.57236e-07
3.78624e-05
9.24006e-07
3.74548e-05
8.67224e-07
3.70599e-05
9.448e-07
3.66893e-05
1.21034e-06
3.62854e-05
1.67282e-06
3.57668e-05
2.50639e-06
3.50486e-05
3.36547e-06
3.39669e-05
4.7607e-06
3.25077e-05
5.89451e-06
3.04227e-05
7.50917e-06
2.78151e-05
8.76609e-06
2.44355e-05
1.04681e-05
2.04214e-05
9.44016e-06
1.54765e-05
1.1068e-05
1.08252e-05
7.31375e-06
5.17423e-06
-1.01778e-05
1.44083e-06
-2.46129e-05
6.09211e-06
-3.07202e-05
1.72214e-05
-3.27941e-05
3.06288e-05
-2.42185e-05
4.51188e-05
-1.20573e-05
5.59221e-05
-5.60326e-06
6.12228e-05
-3.81086e-06
6.36251e-05
-5.58663e-07
6.51164e-05
2.88771e-06
6.53424e-05
3.85674e-06
6.41966e-05
3.50957e-06
6.26007e-05
2.93786e-06
6.11369e-05
2.32379e-06
5.99195e-05
1.6984e-06
5.89581e-05
1.54987e-06
5.82604e-05
1.61796e-06
5.76344e-05
1.72473e-06
5.69858e-05
1.72106e-06
5.6292e-05
1.829e-06
5.55999e-05
1.88445e-06
5.48652e-05
2.10547e-06
5.41124e-05
2.23329e-06
5.32709e-05
2.19489e-06
5.23733e-05
2.23359e-06
5.14862e-05
2.32646e-06
5.05859e-05
2.49386e-06
4.9647e-05
2.66112e-06
4.86408e-05
2.95266e-06
4.75641e-05
3.65304e-06
4.63771e-05
4.16167e-06
4.49078e-05
4.39715e-06
4.32112e-05
4.82566e-06
4.14036e-05
5.61774e-06
3.94204e-05
7.27968e-06
3.71291e-05
8.99048e-06
3.41586e-05
9.72106e-06
3.0415e-05
1.13107e-05
2.62619e-05
1.54903e-05
2.13678e-05
1.665e-05
1.43854e-05
1.13644e-05
6.18731e-06
3.86707e-06
-2.33523e-07
-2.26887e-07
-3.15374e-06
-9.73474e-07
-3.68051e-06
-8.50122e-07
-3.46091e-06
-5.96543e-07
-3.11602e-06
-9.24688e-07
-2.83141e-06
-1.23445e-06
-2.37603e-06
-8.71515e-07
-1.77874e-06
-3.90658e-07
-1.35996e-06
-8.19815e-08
-1.17072e-06
6.02071e-08
-1.13368e-06
1.53016e-07
-1.16974e-06
2.39709e-07
-1.25251e-06
2.40645e-07
-1.37846e-06
2.14731e-07
-1.50485e-06
2.02434e-07
-1.61791e-06
2.25767e-07
-1.72583e-06
2.50763e-07
-1.84593e-06
2.74231e-07
-1.97883e-06
2.87925e-07
-2.12311e-06
2.76116e-07
-2.27365e-06
2.72114e-07
-2.41903e-06
2.79635e-07
-2.5631e-06
2.9076e-07
-2.71125e-06
2.99176e-07
-2.86511e-06
3.06079e-07
-3.02341e-06
3.12119e-07
-3.18538e-06
3.17545e-07
-3.35065e-06
3.25057e-07
-3.519e-06
3.29047e-07
-3.6914e-06
3.4468e-07
-3.8666e-06
3.63587e-07
-4.04971e-06
3.81852e-07
-4.24214e-06
4.05638e-07
-4.44356e-06
4.21405e-07
-4.65591e-06
4.2128e-07
-4.87538e-06
4.26019e-07
-5.09523e-06
4.39345e-07
-5.31754e-06
4.60147e-07
-5.54605e-06
4.77171e-07
-5.7836e-06
4.69493e-07
-6.02814e-06
4.66218e-07
-6.26916e-06
4.72657e-07
-6.50865e-06
4.86179e-07
-6.75104e-06
5.0503e-07
-6.99953e-06
5.19355e-07
-7.25612e-06
5.24811e-07
-7.51855e-06
5.22496e-07
-7.78269e-06
5.17027e-07
-8.04524e-06
5.20435e-07
-8.30519e-06
5.30755e-07
-8.56648e-06
5.45775e-07
-8.83219e-06
5.64247e-07
-9.10412e-06
5.74674e-07
-9.38329e-06
5.75379e-07
-9.66575e-06
5.66072e-07
-9.94688e-06
5.47108e-07
-1.02223e-05
5.35134e-07
-1.04883e-05
5.36509e-07
-1.07476e-05
5.33778e-07
-1.10053e-05
5.0201e-07
-1.12587e-05
4.54463e-07
-1.14959e-05
4.15825e-07
-1.17111e-05
3.96344e-07
-1.19087e-05
3.74934e-07
-1.20967e-05
3.61661e-07
-1.2275e-05
3.58906e-07
-1.24478e-05
3.8419e-07