/*--------------------------------*- C++ -*----------------------------------*\
| =========                 |                                                 |
| \\      /  F ield         | OpenFOAM: The Open Source CFD Toolbox           |
|  \\    /   O peration     | Version:  2212                                  |
|   \\  /    A nd           | Website:  www.openfoam.com                      |
|    \\/     M anipulation  |                                                 |
\*---------------------------------------------------------------------------*/
FoamFile
{
    version     2.0;
    format      ascii;
    arch        "LSB;label=32;scalar=64";
    class       volScalarField;
    location    "5000";
    object      Q_3D;
}
// * * * * * * * * * * * * * * * * * * * * * * * * * * * * * * * * * * * * * //

dimensions      [0 0 0 0 0 0 0];

internalField   nonuniform List<scalar> 
10368
(
2.05621e-57
6.20385e-25
3.34628e-56
8.27181e-25
1.02241e-57
2.06795e-25
1.03398e-25
4.1359e-25
4.01445e-57
0
4.1359e-25
4.1359e-25
5.71682e-54
5.16988e-25
2.06795e-25
1.03398e-25
5.16988e-26
3.06298e-48
1.87445e-43
5.65331e-41
2.78675e-41
5.90762e-43
3.07462e-42
5.07162e-55
2.14564e-45
8.16933e-40
6.47181e-47
2.0781e-42
5.42743e-42
6.28814e-46
3.23461e-40
4.80046e-42
8.2479e-46
3.55029e-57
1.57424e-45
9.82378e-41
9.37358e-46
2.71082e-41
1.7821e-46
2.30912e-41
1.19709e-45
1.81957e-47
2.25218e-45
2.5337e-44
4.54151e-45
1.16754e-47
2.16745e-43
3.26018e-42
8.51966e-43
7.26422e-44
2.0094e-41
3.27216e-42
7.53333e-46
2.11139e-44
1.89134e-46
8.16203e-45
3.266e-44
5.05096e-47
3.4343e-44
8.21455e-45
1.04879e-43
5.118e-44
5.10172e-47
3.50834e-44
1.19311e-44
2.96288e-44
2.93698e-45
6.79844e-47
2.3888e-45
5.00753e-45
7.21689e-47
6.04664e-45
2.12528e-44
1.14306e-44
3.05929e-47
3.53325e-46
1.47238e-46
6.80978e-44
2.18619e-44
1.93243e-46
8.73102e-44
4.5597e-46
6.6428e-47
2.82498e-44
6.20342e-46
1.87182e-44
6.11946e-44
3.03156e-46
4.89431e-44
5.40565e-44
6.40234e-44
2.5244e-43
2.76024e-46
1.45235e-45
5.97447e-47
5.26507e-47
3.24459e-43
8.27719e-44
4.23281e-48
7.79998e-44
8.26452e-44
2.89318e-44
1.44935e-43
1.37923e-43
4.93561e-47
4.51508e-44
3.56774e-44
1.75769e-47
1.54041e-45
2.96147e-47
8.69969e-44
1.27745e-46
4.38488e-44
2.40567e-43
1.5742e-43
2.90704e-46
4.75138e-44
1.61369e-47
2.17947e-46
8.88069e-44
1.12663e-43
1.94524e-51
3.96649e-52
6.20986e-52
2.52008e-43
2.6902e-47
1.10247e-44
8.99756e-48
1.15907e-44
1.85862e-47
4.46647e-46
5.01218e-46
2.15201e-46
2.08395e-47
8.7582e-46
1.18954e-46
4.93055e-45
2.86391e-48
5.42082e-51
2.06795e-25
3.10193e-25
1.61011e-54
2.58494e-25
2.54213e-51
4.1359e-25
3.10193e-25
5.56379e-52
3.10193e-25
4.1359e-25
6.71736e-55
4.1359e-25
3.10193e-25
4.1359e-25
6.1397e-51
4.1359e-25
1.01527e-50
4.5794e-51
1.76208e-51
2.75081e-52
5.45979e-52
8.01889e-54
0
7.75482e-26
5.16988e-26
5.81611e-26
7.50987e-55
3.40406e-55
1.61559e-26
7.37239e-57
7.75482e-26
5.16988e-26
0
6.46235e-26
2.70355e-57
4.49651e-54
4.05162e-54
3.48078e-54
1.14853e-53
2.32372e-54
1.37226e-54
2.53689e-54
1.80376e-54
3.10193e-25
2.6248e-63
2.58494e-25
2.58494e-25
3.84446e-63
3.10193e-25
6.15872e-63
5.80896e-59
1.55096e-25
1.03398e-25
1.69407e-21
4.28064e-57
1.69407e-21
1.69407e-21
1.69407e-21
8.47033e-22
8.21741e-51
4.85737e-51
8.47033e-22
1.05879e-22
1.05821e-53
2.38228e-22
3.97047e-23
6.0236e-50
4.70417e-50
7.94093e-23
8.69882e-49
4.13017e-48
2.84272e-41
7.84638e-38
7.40007e-39
1.25049e-37
3.09769e-37
1.14309e-43
2.45495e-43
1.05716e-36
1.43148e-45
4.30451e-40
5.07195e-40
2.53123e-43
4.19886e-37
2.64644e-37
1.48297e-39
3.50078e-51
1.85588e-43
7.48068e-38
3.85034e-44
4.69968e-39
1.52531e-44
1.8345e-40
7.29345e-40
9.24532e-45
1.27768e-42
7.08347e-40
4.3333e-42
2.76477e-44
1.54863e-40
1.21469e-39
6.60772e-39
1.17707e-39
1.16503e-38
1.49063e-39
8.34053e-44
7.52834e-42
1.10797e-43
1.7994e-39
7.71484e-40
4.66989e-41
1.22739e-40
5.385e-42
2.10966e-41
1.42514e-40
2.13406e-47
1.51608e-41
8.12775e-42
1.24527e-41
3.74143e-42
3.31713e-44
2.37113e-42
1.50789e-42
1.69503e-51
1.08829e-42
1.5173e-41
4.13989e-42
1.41083e-44
5.29629e-44
1.81283e-44
3.31055e-41
2.45992e-42
3.99163e-49
4.69915e-43
6.85774e-42
3.08603e-44
2.39732e-41
1.34499e-43
1.16054e-41
3.02049e-41
3.68957e-44
4.64607e-43
8.96894e-42
2.24893e-40
2.79592e-41
1.29046e-43
8.32184e-43
6.15316e-51
5.84793e-50
2.77732e-41
5.42442e-41
9.19251e-45
2.22695e-41
1.04083e-42
2.67446e-43
1.51487e-40
7.6371e-41
5.38729e-45
2.58303e-41
1.11066e-41
1.83352e-41
3.83669e-42
9.22671e-43
1.65484e-41
1.50632e-44
2.68094e-41
4.73335e-41
2.26263e-40
1.58714e-40
8.4188e-42
7.27673e-49
3.94201e-42
1.17729e-42
1.71336e-41
6.44751e-45
1.39651e-43
4.80679e-44
6.30229e-42
1.61763e-41
8.79762e-42
4.58544e-49
2.19614e-42
8.11121e-43
1.2122e-43
1.58037e-42
7.31753e-44
1.18957e-42
1.19057e-43
9.35888e-43
1.26231e-42
2.87819e-45
2.58794e-45
3.66027e-23
3.72231e-23
5.29396e-23
8.3478e-48
7.94093e-23
2.89649e-48
7.2162e-48
1.05879e-22
7.94093e-23
5.29396e-23
1.05879e-22
1.05879e-22
1.05879e-22
7.94093e-23
1.54338e-48
6.55173e-47
5.14e-47
1.85288e-22
1.85288e-22
2.97418e-50
1.05879e-22
5.17073e-51
2.72647e-54
5.29396e-23
1.53473e-52
1.32349e-23
5.58753e-53
1.42189e-52
2.55074e-53
7.36306e-53
9.19078e-53
1.85288e-22
1.79535e-55
1.19793e-52
1.11714e-52
4.23516e-22
3.08037e-55
2.02724e-55
6.09696e-55
5.80859e-55
8.47033e-22
8.47033e-22
6.35275e-22
4.98153e-57
7.4257e-57
5.21949e-57
4.23516e-22
2.68773e-56
4.70954e-54
8.47033e-22
6.35275e-22
8.62464e-62
0
0
0
5.43009e-59
1.35525e-20
2.17392e-50
5.94254e-53
2.7624e-52
2.03288e-20
3.38813e-20
3.17644e-51
2.71051e-20
1.69407e-20
6.77626e-21
1.56701e-48
1.69407e-21
3.83726e-48
9.39061e-48
6.05761e-47
3.2417e-38
2.11712e-36
2.15529e-36
9.7634e-36
7.67472e-36
2.99069e-42
6.22458e-42
5.52728e-35
3.53893e-39
1.31362e-46
1.02467e-46
6.02451e-42
1.16523e-35
8.48931e-36
5.98358e-36
1.99651e-38
8.95142e-47
6.94691e-39
1.91193e-42
1.26139e-37
2.09612e-42
6.44036e-40
1.12111e-37
2.38322e-43
1.30222e-41
1.84229e-38
1.11063e-43
2.33009e-41
4.55341e-38
1.74632e-39
1.03753e-37
9.80626e-38
2.94337e-37
4.96686e-39
1.27468e-49
5.2065e-40
3.96945e-39
5.72046e-38
2.60374e-38
6.43048e-39
9.86336e-42
2.27493e-40
2.76234e-39
2.57692e-40
3.10862e-42
1.68462e-40
6.51384e-41
8.01657e-43
6.19258e-42
7.33186e-51
2.26967e-40
2.952e-51
2.9231e-43
2.75409e-40
1.98911e-40
1.0671e-40
2.11385e-41
2.86442e-41
2.96136e-41
6.35227e-40
4.53915e-40
7.63712e-43
2.306e-43
3.73754e-41
4.13366e-41
3.79287e-41
9.12461e-49
4.44573e-41
3.63694e-43
6.50293e-51
7.6753e-40
3.97188e-39
8.78866e-39
3.15162e-39
9.99916e-43
1.08644e-40
2.01387e-48
3.55764e-48
1.99676e-39
6.63137e-43
1.13075e-43
1.41134e-39
3.98615e-40
8.59874e-40
2.6206e-40
1.74612e-40
1.87225e-43
1.5368e-40
2.0315e-43
3.34768e-39
2.46907e-39
3.29106e-39
4.09033e-41
6.18497e-43
5.75647e-43
8.11581e-39
6.71071e-39
1.02319e-38
4.51504e-39
8.18422e-43
4.67411e-48
1.03229e-41
3.48519e-39
1.02574e-42
1.8523e-39
3.23847e-43
2.03817e-39
1.99275e-39
9.08811e-41
1.42935e-43
6.06691e-40
7.69295e-42
5.59725e-42
2.9381e-43
9.50689e-41
3.06722e-41
6.71372e-43
2.10099e-41
3.50147e-41
4.53434e-41
1.32016e-41
3.69633e-45
1.37643e-21
1.20534e-47
1.27055e-21
3.38813e-21
1.69407e-21
2.96462e-21
1.09559e-47
2.5411e-21
3.81165e-21
5.42495e-48
3.38813e-21
1.76732e-46
7.69492e-48
3.38813e-21
3.38813e-21
8.02739e-45
2.5411e-21
5.30552e-47
1.5811e-47
8.78469e-50
2.9371e-49
0
0
3.05396e-50
2.55954e-50
0
1.13578e-51
9.8912e-52
1.69165e-52
6.4002e-52
3.38813e-21
3.38216e-51
1.87353e-53
2.39661e-53
0
2.71051e-20
2.71051e-20
1.35525e-20
3.38813e-20
3.38813e-20
4.21719e-54
2.80353e-50
3.38813e-20
2.71051e-20
2.71051e-20
9.76915e-56
1.1062e-52
2.03288e-20
1.23852e-52
4.52627e-63
0
0
1.30309e-54
1.52768e-54
8.78911e-53
3.77494e-52
9.05975e-53
5.42101e-19
4.33681e-19
1.6263e-19
1.6263e-19
1.94701e-47
2.71051e-20
3.03967e-47
2.03288e-20
3.2124e-49
3.52965e-47
1.07638e-46
1.45798e-45
2.41112e-41
4.50565e-37
1.11214e-35
2.01375e-35
5.93768e-37
2.89883e-38
4.7645e-46
4.3116e-41
1.94942e-34
2.43068e-34
6.15548e-37
8.1609e-46
4.10118e-37
6.57863e-35
6.93968e-36
2.39615e-35
2.2203e-35
2.68627e-41
1.7838e-48
1.35876e-41
8.0925e-36
4.01027e-41
2.4379e-37
1.36633e-36
1.83656e-42
3.90313e-18
1.89468e-39
4.96417e-42
1.03751e-37
2.82785e-37
8.06341e-39
1.12028e-38
2.04218e-39
2.62217e-36
3.08149e-38
3.07895e-41
1.30464e-36
1.17363e-36
1.43555e-37
4.72648e-40
1.68507e-37
1.08477e-37
2.10371e-38
3.39296e-39
2.86352e-38
3.72687e-41
1.80044e-38
9.36718e-39
2.33913e-41
1.35315e-38
3.5012e-42
3.16914e-39
1.32449e-41
8.13925e-40
2.58848e-39
9.0886e-40
1.12981e-39
4.67623e-39
2.17887e-39
1.26886e-38
7.25524e-39
1.57853e-38
9.51087e-42
1.56721e-38
1.79244e-38
4.12639e-38
4.36871e-39
7.39509e-49
5.55235e-39
2.67927e-38
4.1424e-45
1.81127e-38
5.63067e-38
8.1267e-38
7.52098e-38
2.48035e-38
5.72692e-38
1.13216e-41
1.02421e-41
6.89429e-38
1.40994e-37
1.78247e-42
4.95334e-38
8.83907e-39
2.49392e-38
6.13241e-38
5.3899e-39
2.16762e-42
8.20093e-38
1.33278e-41
4.39381e-38
3.37969e-39
2.92402e-38
5.23137e-38
6.76087e-42
1.26683e-46
4.79176e-40
4.19643e-38
1.63349e-37
9.44758e-38
1.16162e-41
2.43165e-42
2.02511e-38
2.11816e-38
4.2266e-39
2.01445e-38
6.51904e-39
8.45553e-38
9.82337e-40
5.15556e-42
1.67151e-46
4.02273e-39
1.28585e-39
1.79161e-39
2.32949e-41
1.38779e-40
3.3537e-41
5.16868e-40
3.66562e-40
5.10245e-41
4.67131e-40
2.83065e-40
7.38475e-44
1.01644e-20
1.35525e-20
5.0822e-21
1.83902e-45
7.41154e-21
6.68739e-45
7.19978e-21
3.81165e-21
0
3.38813e-21
9.29051e-47
1.27373e-45
1.21356e-45
4.86243e-44
5.0822e-21
6.32418e-44
8.47033e-21
1.01644e-20
1.35525e-20
1.82202e-47
2.48728e-46
3.68333e-51
5.1554e-52
2.39249e-47
1.26652e-47
5.49591e-53
0
0
9.11978e-51
7.80502e-48
1.50204e-49
1.96669e-52
2.47538e-53
5.75982e-20
3.18271e-52
6.77626e-20
0
0
1.89735e-19
7.31457e-49
2.1684e-19
1.623e-52
4.93029e-49
2.71051e-19
2.1684e-19
7.30193e-51
2.1684e-19
3.25261e-19
1.17025e-56
2.1684e-19
1.05833e-60
8.89907e-61
4.33681e-18
5.76718e-50
6.14877e-49
3.46945e-18
5.42062e-48
9.31291e-48
3.55571e-47
3.46945e-18
3.46945e-18
3.22692e-46
1.4269e-45
1.73472e-18
6.168e-47
1.94808e-47
4.64043e-46
6.21061e-46
1.07931e-44
4.19949e-40
1.75778e-35
3.2284e-35
4.21107e-35
2.63788e-39
6.63599e-34
8.33502e-41
4.30898e-45
3.57241e-37
9.68949e-34
2.02182e-34
2.84395e-40
2.23e-34
3.55956e-34
4.70449e-37
1.33552e-34
9.50241e-35
8.37491e-41
3.76572e-51
3.03042e-47
8.5425e-38
5.83675e-46
2.08184e-36
2.6296e-36
3.78798e-39
2.1684e-18
5.39174e-45
2.88489e-39
9.13135e-37
4.29497e-37
3.96796e-36
1.14053e-37
4.78619e-36
2.30448e-37
5.58678e-36
4.75315e-40
1.89324e-36
7.09408e-36
4.65283e-36
3.65764e-36
5.70958e-37
7.01575e-39
4.60557e-38
6.07748e-38
6.96879e-41
6.98006e-41
1.07155e-37
6.97679e-40
3.06181e-40
6.17186e-39
2.60711e-41
2.10063e-38
1.2892e-38
1.69276e-38
5.321e-39
0
8.46526e-39
1.01642e-37
5.28758e-39
9.86094e-39
1.07624e-39
1.51942e-37
2.81598e-38
2.98476e-37
1.12285e-37
2.533e-37
2.12036e-37
1.09499e-44
2.27255e-37
1.40755e-37
2.71632e-44
1.17948e-37
1.08735e-36
8.26023e-37
2.24075e-37
3.19764e-37
4.97581e-37
1.11138e-37
7.27992e-41
1.67284e-38
1.47812e-37
1.13273e-40
1.40459e-37
2.65012e-37
4.48648e-39
2.66074e-39
6.1403e-47
8.23131e-38
5.00093e-37
1.10342e-40
2.00034e-41
3.36166e-39
3.45629e-39
3.51255e-39
2.34249e-46
5.60795e-41
5.67443e-38
9.333e-38
8.19393e-37
1.21215e-36
7.33826e-41
1.44631e-38
1.03188e-38
8.59529e-40
1.99405e-38
6.09479e-40
1.44534e-37
7.5433e-37
2.36299e-38
6.99952e-39
1.02862e-41
4.68286e-39
1.04995e-38
1.10558e-39
3.35274e-39
6.82904e-39
1.89633e-42
6.93575e-42
4.50439e-39
7.58895e-39
5.62108e-42
9.72457e-40
6.33761e-43
6.99836e-44
4.33681e-19
2.56331e-45
4.33681e-19
3.05268e-44
3.25261e-19
2.1684e-19
3.25261e-19
3.25261e-19
3.25261e-19
1.77403e-44
1.701e-46
2.1684e-19
1.6263e-19
1.6263e-19
7.44256e-44
2.1684e-19
2.7003e-43
1.27881e-44
1.01644e-19
2.71051e-20
2.13486e-50
2.94951e-51
1.87386e-46
9.35881e-47
2.46538e-52
0
1.57326e-53
3.58168e-48
1.52014e-47
1.96549e-50
5.93157e-52
7.58942e-19
7.98908e-48
7.38595e-47
1.73472e-18
7.53781e-51
0
0
3.59307e-51
4.33681e-18
6.56394e-48
5.10577e-48
4.33681e-18
3.46945e-18
1.28308e-55
9.30252e-54
3.53866e-50
4.33681e-18
1.53102e-57
3.46945e-18
4.33681e-18
6.52282e-54
1.30104e-18
1.52609e-48
1.73472e-18
2.1684e-18
6.98488e-47
1.30104e-18
8.67362e-19
3.46945e-18
1.75427e-45
2.60209e-18
2.041e-45
5.20417e-18
9.10084e-47
2.02942e-46
2.03447e-45
1.91518e-44
2.40794e-39
7.44987e-35
3.51701e-34
3.81037e-35
1.72411e-39
7.98203e-34
4.81627e-37
1.97498e-36
2.31223e-33
1.42872e-36
2.19328e-34
5.49878e-40
1.10061e-33
1.34113e-33
1.43096e-36
5.91228e-34
2.09064e-36
5.54687e-45
5.9505e-37
1.22805e-44
3.724e-47
2.84697e-45
2.44515e-36
4.21113e-38
1.86922e-37
3.40867e-40
7.23631e-42
1.49e-36
2.41876e-36
6.77197e-38
1.32832e-35
9.27215e-36
1.6315e-35
2.21182e-37
3.20615e-35
4.43838e-37
9.25115e-36
1.14557e-36
3.37019e-35
1.77188e-35
7.16792e-40
5.08779e-36
2.0842e-38
5.83819e-38
8.74474e-37
4.21005e-40
4.68314e-38
4.90425e-37
3.74743e-37
1.07234e-37
1.70065e-40
3.7008e-38
1.22785e-37
7.44626e-38
2.15992e-38
1.88409e-38
2.11027e-37
7.41321e-37
1.56554e-37
5.84561e-37
1.68857e-39
4.61393e-37
2.59662e-37
7.26906e-37
1.15969e-36
1.70834e-36
1.19436e-36
1.95046e-43
2.05151e-36
3.7104e-37
1.82489e-46
1.84175e-37
1.67331e-36
5.21102e-36
1.25383e-36
4.26021e-36
9.57326e-37
2.55031e-36
1.92677e-39
3.62602e-36
5.17832e-36
2.27316e-40
1.33801e-37
2.41414e-36
1.02362e-36
1.33214e-36
3.44593e-37
9.98416e-37
3.78541e-36
5.69709e-37
1.57676e-36
1.89785e-40
3.04767e-38
1.90153e-43
2.86752e-45
5.11684e-45
8.29842e-37
3.55149e-38
3.12189e-37
2.58995e-36
7.49437e-41
5.69619e-37
6.34278e-37
4.83435e-38
3.77752e-37
8.89221e-41
7.91568e-37
2.93094e-37
8.50021e-37
1.50817e-37
1.04345e-38
3.93795e-39
9.53106e-38
3.86976e-38
1.9487e-39
8.80235e-40
3.39061e-42
1.22462e-38
7.20133e-39
2.87258e-38
2.32327e-39
1.94414e-39
1.30104e-18
7.60478e-44
1.73472e-18
1.30104e-18
1.30104e-18
1.73472e-18
1.12478e-45
1.30104e-18
1.29685e-43
8.67362e-19
6.42567e-46
7.58942e-19
4.33681e-19
2.4993e-45
2.98156e-19
8.94641e-45
5.42101e-20
8.86698e-42
1.24619e-42
2.03954e-44
1.78652e-46
1.54389e-45
1.12772e-46
0
1.66328e-47
5.79418e-47
3.9369e-47
3.67015e-49
2.90389e-48
9.03615e-51
6.00252e-51
1.89936e-47
6.50521e-19
8.67362e-19
1.30009e-46
6.50521e-19
4.87654e-46
2.0083e-46
2.1684e-18
6.26135e-51
3.46945e-18
4.33681e-18
5.20417e-18
5.0745e-48
5.24778e-48
1.52734e-53
2.39199e-48
4.33681e-18
3.46945e-18
4.33681e-18
7.17332e-51
2.60209e-18
1.78729e-57
1.43822e-52
6.85139e-52
1.04083e-17
4.21977e-47
5.52205e-47
6.93889e-18
5.63034e-50
3.18328e-46
1.21431e-17
1.21431e-17
1.04083e-17
2.1684e-18
1.90518e-44
5.35162e-47
9.64495e-47
2.2354e-45
7.78111e-43
1.54148e-38
1.31357e-34
1.15984e-33
1.96894e-38
2.39694e-35
3.69471e-33
6.43341e-35
1.18355e-33
2.63951e-33
1.173e-41
1.11667e-33
2.69706e-37
1.76599e-33
4.68387e-36
7.11795e-34
4.20909e-34
2.12044e-40
3.26742e-40
5.25081e-34
3.9325e-40
1.26426e-37
5.9579e-41
3.74091e-36
5.67668e-38
8.42012e-37
7.24604e-39
1.60026e-41
4.14092e-36
7.75638e-36
2.6627e-35
2.23189e-37
2.57934e-35
9.67552e-38
1.86804e-35
5.76193e-35
5.00205e-35
6.78676e-35
3.19717e-37
6.74808e-35
4.52454e-36
2.29179e-39
1.01377e-35
3.27885e-36
2.73656e-37
2.56981e-36
2.05301e-37
7.40938e-39
2.81125e-36
3.66536e-37
8.07304e-37
3.17244e-38
8.97587e-40
3.99639e-37
1.31616e-37
7.76456e-37
1.09206e-36
8.16838e-37
2.22249e-36
7.21594e-39
4.07803e-37
2.25973e-39
4.60496e-38
1.98235e-36
2.40078e-36
5.38595e-36
3.59668e-36
9.95869e-37
3.72055e-39
4.75352e-36
3.61877e-36
3.70096e-44
4.497e-36
8.18243e-37
3.05466e-35
5.30956e-37
2.03965e-35
3.99099e-43
1.10453e-35
1.76192e-36
4.24191e-37
4.61729e-37
1.05652e-46
7.3547e-37
1.15625e-35
7.27407e-37
7.918e-36
5.37392e-36
3.9149e-36
1.1321e-35
1.27736e-35
5.58917e-36
1.81057e-43
5.43255e-36
8.22681e-37
1.55349e-44
1.22619e-39
8.27136e-37
7.37964e-36
1.08223e-36
5.84546e-37
2.85113e-40
1.9747e-36
2.0872e-36
4.81014e-36
2.51621e-36
1.57296e-39
1.6734e-39
5.84312e-37
1.16734e-37
1.96579e-37
4.51306e-37
3.68492e-41
1.47286e-37
1.74611e-37
2.57298e-40
2.72026e-38
9.30813e-41
1.558e-38
3.86123e-38
2.02063e-38
9.55771e-39
7.63888e-39
1.61512e-41
2.35723e-42
8.67362e-19
4.33681e-19
1.68759e-44
4.33681e-19
9.75782e-19
8.67362e-19
3.24347e-43
5.32273e-45
1.08165e-43
1.73472e-18
3.5234e-45
1.28418e-44
1.73472e-18
2.46925e-45
3.03577e-18
1.59255e-41
7.29862e-44
1.30104e-18
5.79098e-44
2.07926e-44
3.28076e-45
2.00443e-49
1.918e-50
3.95388e-46
2.14322e-47
2.20509e-46
2.77349e-46
4.99016e-46
5.47975e-46
4.46248e-47
4.39182e-47
5.20417e-18
1.73472e-18
1.73472e-18
1.96238e-45
1.10451e-45
6.93889e-18
4.05943e-46
2.31769e-46
4.94616e-52
2.8445e-47
1.14678e-46
2.78187e-53
1.04083e-17
1.04083e-17
1.04083e-17
1.04083e-17
1.38778e-17
1.04083e-17
1.38778e-17
1.20714e-52
7.06333e-50
1.38778e-17
1.04083e-17
1.8114e-46
1.38778e-17
1.21431e-17
1.38778e-17
1.21431e-17
1.38778e-17
2.49805e-44
1.21431e-17
1.21431e-17
1.04083e-17
3.46945e-18
2.15992e-44
2.64048e-44
2.5318e-42
6.94291e-42
3.84415e-34
5.6155e-33
1.67396e-38
3.06626e-33
1.15006e-35
1.27777e-34
2.83087e-33
7.45233e-33
3.61133e-36
2.09066e-34
8.48205e-34
1.53493e-33
1.89028e-34
6.38744e-34
5.02303e-34
2.8858e-40
1.51571e-36
5.92004e-34
3.86801e-39
2.13591e-34
2.3646e-40
1.23803e-38
8.19454e-36
3.43137e-36
1.73472e-18
4.99424e-44
4.91532e-39
7.19548e-36
3.08759e-35
6.0507e-40
6.4511e-38
2.4053e-37
4.64179e-35
2.02578e-35
6.18325e-35
5.37318e-35
3.46768e-35
1.07059e-34
3.47743e-35
2.88886e-38
5.07537e-35
1.15363e-35
2.87392e-36
2.7885e-36
8.05637e-36
6.95782e-38
1.18556e-35
3.74287e-36
2.14202e-36
2.04942e-36
4.18027e-39
6.14954e-38
5.26216e-39
1.79175e-36
7.23039e-38
3.56494e-36
1.12402e-35
8.14659e-39
4.50879e-36
1.68993e-42
4.93365e-36
1.80263e-35
2.94923e-36
2.24019e-36
1.43684e-35
1.53692e-38
8.06022e-37
1.14522e-35
1.9101e-36
9.13768e-43
2.27409e-35
6.03404e-36
1.58111e-35
1.67008e-35
5.20975e-36
1.22177e-38
4.99278e-36
2.97845e-35
8.14873e-36
1.64715e-36
8.37188e-40
6.2622e-36
1.15739e-35
6.41076e-36
1.4055e-35
1.3371e-35
1.74616e-36
5.15649e-36
9.8985e-36
3.39352e-36
1.69653e-39
2.13569e-35
1.09679e-35
2.56598e-39
1.78624e-42
1.34907e-36
3.6142e-35
9.57162e-36
5.38612e-44
3.60745e-44
3.33262e-37
6.31792e-36
6.81229e-36
6.44258e-36
3.98434e-39
2.82041e-36
1.20282e-35
5.57884e-39
6.58176e-37
1.52258e-36
2.55515e-40
1.49518e-38
4.77825e-37
6.04222e-41
1.41127e-37
4.16238e-39
9.71416e-38
1.66817e-37
5.19582e-38
8.13996e-39
6.93889e-18
4.22839e-18
2.61385e-42
2.60209e-18
1.88133e-42
4.75021e-46
3.46945e-18
4.33681e-18
2.82209e-43
3.08645e-44
3.46945e-18
6.39968e-44
1.29558e-42
5.98867e-47
3.46945e-18
1.42194e-41
3.46945e-18
6.24047e-41
4.36927e-43
5.60084e-46
8.12505e-45
3.41787e-43
7.76523e-45
3.35317e-45
4.38489e-46
3.50598e-46
8.1436e-46
8.9684e-46
1.45721e-46
1.76541e-45
4.7077e-45
2.10845e-45
1.2026e-49
8.62858e-50
1.85356e-49
6.93889e-18
8.34286e-49
1.38778e-17
3.76282e-45
5.81512e-46
1.68389e-45
5.05869e-46
6.79896e-46
4.03068e-48
8.39553e-47
6.93889e-18
1.04083e-17
1.04083e-17
1.04083e-17
8.3637e-52
1.04083e-17
1.38778e-17
5.56002e-55
8.47805e-57
8.39748e-54
5.17301e-51
2.55503e-47
2.53751e-46
3.46945e-18
6.01596e-46
3.46945e-18
3.46945e-18
1.17853e-45
5.1418e-45
9.2545e-45
5.64728e-48
2.60209e-18
5.20417e-18
1.04083e-17
2.56925e-44
8.91074e-42
9.83545e-39
8.33014e-36
4.93075e-34
1.61072e-34
9.2239e-33
5.46817e-34
1.38075e-34
2.63403e-36
5.36003e-36
3.8092e-33
2.02907e-34
1.85185e-33
4.01431e-36
2.38092e-34
8.39896e-34
6.58269e-35
5.24783e-40
3.74631e-34
1.37269e-33
3.75455e-39
2.21075e-34
2.27275e-39
8.12493e-36
1.8473e-35
9.72327e-36
3.46945e-18
7.02116e-44
1.43751e-40
3.75163e-36
4.79522e-35
1.92713e-40
2.74825e-37
6.50032e-36
2.07766e-37
2.82674e-35
1.43112e-34
9.86219e-36
8.40764e-35
1.77487e-34
3.22333e-35
3.34921e-39
6.12823e-35
6.69101e-36
1.14237e-39
8.48449e-36
4.2831e-35
1.02682e-37
9.80845e-36
2.39121e-36
9.76165e-37
4.93143e-37
1.75239e-38
3.5189e-37
2.21199e-38
1.6469e-35
7.24789e-37
7.48047e-36
1.74373e-35
1.42903e-36
1.84638e-35
8.5418e-36
5.08561e-36
1.8849e-35
3.08129e-35
5.40231e-38
2.28538e-35
5.69322e-38
4.37659e-35
2.15004e-35
4.50977e-35
5.37198e-38
4.20497e-35
5.92687e-35
1.22743e-34
3.09294e-35
4.16208e-35
3.47644e-38
1.02129e-35
1.24473e-34
6.40453e-35
5.51596e-35
2.3207e-38
4.44993e-35
6.23703e-35
1.80022e-35
7.32492e-36
2.88907e-36
1.66463e-35
5.55047e-35
1.02298e-34
1.66808e-38
2.34422e-43
4.03938e-36
6.14925e-35
4.12426e-39
2.26264e-37
7.00545e-39
3.90551e-35
2.71049e-35
1.83429e-38
9.16741e-43
8.18484e-40
4.82941e-36
2.13508e-35
6.40768e-37
6.05144e-39
4.03308e-36
3.03771e-35
6.7487e-37
2.30854e-36
4.54433e-38
2.6007e-39
7.93623e-41
5.93515e-37
3.87368e-39
1.93945e-37
5.66959e-38
2.24319e-38
4.86567e-39
6.4882e-38
7.09165e-39
6.58219e-38
1.73472e-18
9.73985e-44
8.67362e-19
5.84956e-42
5.66686e-46
4.33681e-19
0
2.22825e-44
1.13227e-43
2.29149e-42
1.90067e-42
1.98756e-44
5.34944e-45
5.89845e-45
5.48959e-44
1.54327e-41
1.47348e-41
6.03532e-42
1.18436e-44
2.88127e-43
6.69539e-43
4.19004e-43
6.47024e-44
6.15867e-45
1.52127e-44
1.00647e-47
1.84365e-46
5.31841e-47
4.23911e-45
1.66659e-45
7.4408e-48
1.97208e-46
3.62517e-46
3.88554e-46
1.12281e-45
6.57058e-45
6.84607e-46
3.48051e-45
6.93889e-18
4.38731e-45
2.32737e-47
6.50521e-19
6.50521e-19
3.79471e-19
1.17523e-46
8.67362e-19
1.12486e-55
8.67362e-19
9.29053e-49
6.50521e-19
1.41987e-48
5.17295e-59
8.67362e-19
2.60209e-18
1.92936e-51
2.10869e-50
1.36256e-49
1.97264e-49
1.05749e-48
3.28276e-49
1.52509e-48
1.05611e-44
2.91578e-44
9.95072e-48
0
5.61684e-47
1.79049e-43
8.39074e-43
1.00997e-43
1.56978e-41
7.90712e-41
2.23802e-34
2.29009e-33
9.21077e-33
2.99389e-34
3.09839e-34
1.6509e-36
1.81033e-39
3.87108e-33
8.03055e-33
1.25231e-36
1.03128e-36
1.01636e-39
2.81158e-34
4.2047e-33
7.85653e-35
9.92599e-42
7.92878e-34
1.39403e-36
4.62517e-37
3.21645e-34
4.12121e-40
8.18052e-36
1.23238e-39
6.18569e-39
1.73472e-18
9.4775e-44
3.66038e-45
2.33758e-37
4.81912e-35
1.32463e-39
6.93159e-35
6.22e-36
5.0124e-37
7.9722e-35
5.98194e-37
1.05759e-35
4.65766e-36
1.02482e-34
1.09512e-34
4.0995e-39
2.3924e-35
6.02202e-36
7.1213e-36
4.2359e-35
6.81804e-35
1.72948e-39
1.07568e-35
1.75902e-35
1.32022e-36
2.7505e-36
7.6632e-37
1.40976e-35
3.11949e-36
4.34283e-36
3.44033e-35
2.42575e-35
8.19669e-35
1.84783e-35
5.93601e-36
3.97468e-35
1.58259e-37
1.50216e-35
8.72744e-35
1.54131e-37
2.31233e-34
1.81758e-37
4.14955e-35
3.18288e-35
3.66967e-34
8.01076e-35
1.67365e-35
2.02885e-34
8.55593e-36
5.5475e-35
4.90169e-35
6.05e-37
9.97706e-35
7.27495e-36
2.41895e-34
1.78239e-34
4.78878e-39
7.46628e-35
1.16762e-35
6.53407e-36
3.09075e-39
2.91066e-39
4.47975e-35
7.52589e-35
6.27386e-35
4.43425e-39
6.32325e-44
7.39453e-39
7.92517e-35
4.99142e-42
2.52866e-35
5.83969e-39
7.484e-36
1.09036e-34
6.15128e-39
3.35311e-42
2.02329e-39
1.35755e-35
2.08751e-36
1.62958e-35
1.37085e-38
6.35813e-36
2.56472e-35
1.07681e-35
1.46058e-37
2.87828e-37
1.18047e-36
6.10817e-40
6.15958e-38
7.05033e-38
8.01213e-38
1.43688e-37
5.72839e-38
6.18076e-38
7.33475e-38
1.21528e-41
3.62724e-39
4.40261e-42
1.38628e-42
1.51399e-41
2.33458e-43
6.95185e-44
4.82606e-44
1.40607e-43
6.50521e-19
6.09864e-19
1.0842e-18
9.75782e-19
9.92719e-42
8.67362e-19
2.67798e-43
2.6197e-41
1.27251e-40
1.02984e-42
1.22092e-41
2.03242e-42
7.77099e-43
1.63861e-43
1.37711e-42
1.52279e-43
2.90102e-45
1.14263e-44
2.77696e-45
3.33419e-50
2.65328e-46
2.66876e-47
3.04394e-46
0
1.47588e-49
2.83755e-49
4.81481e-49
8.5131e-49
9.88167e-45
3.46945e-18
7.2999e-49
2.60209e-18
7.74859e-50
4.64832e-50
2.81893e-18
1.51253e-45
3.46945e-18
8.8139e-51
2.65034e-51
1.2809e-51
2.49491e-52
3.46945e-18
2.60209e-18
3.46945e-18
8.61445e-59
3.46945e-18
5.89766e-49
1.49358e-47
1.73472e-18
1.73472e-18
2.00412e-46
9.91314e-46
1.33094e-45
1.76796e-45
4.32654e-48
4.77767e-48
0
3.20778e-47
5.24243e-43
8.92323e-43
1.2493e-42
1.37812e-42
1.99892e-41
6.25698e-39
3.62902e-35
2.70561e-33
1.34969e-32
1.42948e-34
4.71271e-34
9.26399e-34
1.93754e-39
8.24889e-33
1.31434e-35
3.37023e-34
9.35993e-40
9.07062e-46
1.14354e-36
6.44924e-33
5.48033e-36
7.06605e-49
2.36291e-37
6.69918e-37
1.52589e-34
9.86141e-35
1.26047e-40
1.07643e-35
3.24097e-36
6.0094e-41
1.13549e-38
1.25996e-43
2.75599e-43
4.88453e-42
4.60838e-36
3.70133e-37
6.37659e-35
8.35604e-36
9.90778e-36
1.08988e-36
1.84586e-42
3.82355e-36
2.77325e-39
2.93558e-34
7.09065e-36
1.76995e-36
8.55782e-35
5.18836e-36
1.54119e-35
6.57184e-36
1.12465e-34
6.53127e-39
1.08605e-34
1.05923e-35
3.26093e-35
2.43691e-35
6.72803e-36
1.10299e-34
3.46844e-35
2.55926e-35
3.53659e-36
7.35294e-35
4.07418e-34
3.00145e-35
3.64744e-40
2.95877e-34
4.0634e-37
1.09946e-42
5.53747e-35
8.69604e-35
9.34515e-34
3.85529e-37
3.33847e-34
1.87758e-34
5.57567e-34
1.27269e-34
1.34439e-34
1.83343e-36
1.76928e-37
1.86894e-34
6.00144e-34
9.17751e-35
3.07603e-34
2.15763e-35
1.30038e-35
1.28711e-35
9.82474e-39
7.7247e-35
2.15844e-38
9.14186e-35
1.29316e-38
5.02044e-43
2.22626e-36
2.05609e-34
7.30087e-35
3.67477e-39
1.79539e-45
2.08312e-36
1.09017e-34
1.18986e-40
6.95444e-35
4.95747e-36
7.05712e-36
1.81296e-36
1.19672e-42
9.20411e-38
4.94e-41
5.80358e-37
2.81374e-37
2.77844e-35
6.72534e-39
1.36497e-35
1.63736e-36
1.57001e-35
8.39505e-39
2.74586e-37
4.43695e-36
1.96814e-39
2.83808e-37
3.08896e-37
8.18365e-38
7.50677e-39
3.13127e-39
7.88596e-38
1.30916e-37
4.64834e-41
2.77802e-39
8.521e-41
4.55856e-41
1.82895e-42
3.03577e-18
1.73472e-18
7.81036e-42
5.42101e-19
4.06055e-43
2.56562e-43
6.50521e-19
2.48896e-43
2.4478e-41
4.25105e-44
1.49493e-42
2.53835e-41
7.36532e-41
6.37932e-41
2.67018e-41
8.46412e-42
6.49931e-43
8.80935e-43
1.72139e-43
3.29717e-44
6.75268e-46
6.66616e-45
1.17121e-44
9.36217e-46
2.19445e-45
8.41758e-45
2.51392e-44
3.74502e-47
3.93944e-45
3.09604e-45
2.50891e-48
1.77824e-48
9.35029e-49
2.79898e-45
7.32117e-47
1.30104e-18
4.33681e-18
3.03577e-18
2.73822e-45
1.7799e-49
2.73043e-45
1.17515e-45
3.14307e-47
1.73472e-18
1.73472e-18
3.1814e-52
1.73472e-18
1.73472e-18
9.70957e-55
4.59055e-56
2.60209e-18
1.73472e-18
2.1004e-51
1.73472e-18
1.30104e-18
1.51877e-48
5.12432e-49
4.55323e-48
0
0
1.6798e-49
6.88429e-44
4.65328e-43
5.31371e-43
8.97064e-43
2.94587e-42
2.58946e-41
3.20521e-39
3.32417e-34
8.08712e-33
3.27522e-32
1.04608e-32
5.90607e-35
2.87458e-33
8.33158e-41
8.68213e-36
1.50119e-43
1.31363e-34
1.02293e-36
2.33138e-39
1.89166e-33
2.82004e-33
5.11223e-34
1.20002e-39
1.71605e-39
1.43932e-34
2.93349e-34
7.55485e-34
6.5074e-37
3.20305e-39
3.10299e-36
2.5464e-44
3.36708e-38
4.61136e-39
4.92831e-44
3.27724e-40
6.9437e-36
3.57149e-35
1.79072e-34
9.51842e-38
4.21418e-36
5.21296e-43
2.46387e-39
6.41437e-35
6.17382e-37
1.71395e-34
4.55082e-36
5.919e-35
1.84109e-34
2.12152e-36
5.11321e-35
7.78e-36
7.40117e-35
1.17913e-38
3.21334e-34
3.30951e-35
9.97401e-35
2.05979e-36
3.27773e-35
1.33396e-35
3.01534e-34
1.53821e-34
1.73396e-34
6.3975e-34
8.24413e-35
4.62876e-34
3.18851e-36
2.96316e-34
7.89144e-37
6.57972e-37
1.9256e-34
3.21693e-35
4.23034e-34
5.441e-41
1.32824e-34
1.74882e-34
2.01761e-34
6.33862e-34
1.45414e-34
3.82324e-35
2.38434e-37
9.24957e-35
1.28874e-33
1.05013e-34
2.54604e-35
3.33261e-34
5.68808e-38
6.76706e-36
9.4341e-45
4.57532e-36
6.01693e-36
2.28866e-34
1.36653e-35
5.06502e-36
7.91371e-35
5.67828e-35
8.80553e-36
4.80794e-41
7.20496e-39
2.86481e-35
9.90615e-35
4.383e-39
5.97648e-36
2.84603e-35
2.0989e-36
2.73872e-35
3.11718e-36
1.77448e-36
5.43029e-41
1.45148e-35
5.84486e-36
1.99986e-37
1.0601e-40
1.7767e-37
3.0927e-39
2.3748e-35
4.12899e-39
2.77383e-37
3.68921e-36
8.65837e-40
1.0528e-37
2.79351e-37
1.55881e-37
1.47125e-38
2.95275e-37
1.2715e-39
8.69661e-40
2.36258e-41
8.56793e-40
6.36247e-41
9.56092e-41
1.15337e-41
8.7902e-42
1.27438e-42
1.82959e-19
3.23977e-43
6.05354e-42
1.81008e-41
2.11095e-41
1.79091e-41
2.87102e-41
2.3118e-46
4.46992e-42
6.69523e-42
4.50609e-40
1.23707e-40
1.39704e-41
7.74912e-43
2.06721e-43
1.33362e-42
4.15239e-43
7.15336e-47
1.62261e-46
1.49191e-46
7.94148e-46
2.23475e-44
9.06362e-46
2.61377e-44
1.82477e-43
1.13874e-44
2.5039e-44
2.37286e-45
1.79313e-44
3.74864e-44
2.35546e-48
1.75122e-44
8.33357e-47
3.20525e-44
3.46945e-18
1.90817e-44
1.73472e-18
6.93889e-18
2.70608e-45
2.31023e-45
3.46945e-18
1.30104e-18
1.82171e-46
1.51788e-18
3.09178e-48
1.30104e-18
2.72309e-49
1.90741e-50
0
1.41994e-50
1.98357e-50
0
4.36222e-52
3.20058e-44
3.79924e-46
9.04191e-45
2.8797e-51
0
0
5.26526e-46
6.76367e-45
2.89464e-45
3.60031e-45
7.75262e-42
4.00506e-40
3.94536e-40
9.6248e-34
2.23335e-33
1.62201e-32
9.22956e-33
1.93414e-35
3.48337e-36
1.98362e-42
7.61322e-36
1.68319e-42
5.31732e-38
4.68388e-34
1.18523e-38
3.44196e-33
4.0913e-33
9.40188e-34
1.36706e-39
1.79924e-37
8.77415e-35
3.84617e-37
5.2945e-35
5.80577e-35
6.44574e-35
1.53406e-35
7.70016e-38
4.60545e-40
6.14151e-36
3.88353e-41
5.48255e-38
4.38468e-37
6.75869e-35
1.66016e-34
1.32975e-39
8.37789e-41
2.01256e-42
3.07282e-39
1.19262e-34
7.26672e-35
1.20624e-34
9.84234e-35
2.14964e-34
9.0109e-35
1.98633e-35
9.05147e-35
6.50345e-35
8.02552e-35
9.03609e-37
3.09449e-34
1.00726e-34
8.83922e-35
9.71682e-37
3.06309e-35
1.58686e-35
6.34056e-35
1.8459e-33
6.34207e-34
5.85867e-35
8.49799e-34
3.40778e-34
1.12635e-36
1.8699e-34
9.28377e-35
9.7597e-37
4.77469e-34
1.02388e-34
1.68702e-34
5.57854e-37
2.65586e-34
5.49139e-36
1.32376e-33
1.89679e-34
5.04623e-34
6.75126e-35
1.16997e-35
4.48293e-35
1.02634e-33
6.04796e-34
3.50489e-35
9.14153e-34
6.42458e-37
1.51335e-34
1.30602e-35
2.76652e-36
3.88995e-35
7.28579e-35
4.04822e-35
6.11774e-36
9.96987e-35
1.01225e-35
1.19977e-36
1.15958e-40
1.20899e-38
6.92582e-35
7.621e-35
1.3398e-38
4.76487e-39
6.66051e-35
2.09829e-42
3.05e-35
5.41649e-35
2.87959e-36
5.40847e-37
1.64192e-35
1.28191e-35
1.19328e-35
2.73037e-39
9.50169e-42
5.68028e-41
1.98073e-37
1.40015e-38
1.76011e-38
2.48485e-36
9.02511e-40
3.56832e-37
1.74538e-37
8.2906e-39
1.10664e-38
1.11029e-38
1.30198e-37
4.57474e-38
1.43657e-41
3.12106e-41
8.81002e-43
1.30046e-42
2.06038e-43
4.98373e-43
1.53846e-44
0
1.57903e-43
6.66972e-43
1.22248e-42
2.1427e-41
1.70362e-41
2.40004e-43
1.71652e-45
9.72335e-42
4.35913e-42
1.55813e-41
1.8335e-42
1.16735e-42
8.35977e-42
2.43916e-42
1.34115e-42
2.45538e-44
0
0
9.36578e-45
1.55258e-44
6.61123e-45
7.1136e-45
6.41522e-44
6.94383e-44
1.3959e-43
2.1438e-44
3.6704e-45
2.61017e-44