/*--------------------------------*- C++ -*----------------------------------*\
| =========                 |                                                 |
| \\      /  F ield         | OpenFOAM: The Open Source CFD Toolbox           |
|  \\    /   O peration     | Version:  2212                                  |
|   \\  /    A nd           | Website:  www.openfoam.com                      |
|    \\/     M anipulation  |                                                 |
\*---------------------------------------------------------------------------*/
FoamFile
{
    version     2.0;
    format      ascii;
    arch        "LSB;label=32;scalar=64";
    class       volScalarField;
    location    "5000";
    object      Q_sep;
}
// * * * * * * * * * * * * * * * * * * * * * * * * * * * * * * * * * * * * * //

dimensions      [0 0 0 0 0 0 0];

internalField   nonuniform List<scalar> 
10368
(
4.47568e-11
1.43844e-11
1.24818e-11
9.42472e-12
6.79028e-12
2.31908e-12
4.51009e-12
1.82754e-11
3.82385e-11
7.00993e-11
1.08416e-10
1.47675e-10
1.71719e-10
1.59196e-10
8.39489e-11
1.42728e-10
8.62503e-11
1.90775e-11
1.19897e-09
3.77037e-08
9.7471e-08
2.43315e-08
2.90268e-07
5.48594e-07
4.68406e-07
3.72692e-07
3.93225e-07
3.56966e-07
2.70399e-07
2.01675e-07
1.5764e-07
1.29092e-07
1.13672e-07
1.08917e-07
1.06268e-07
1.03133e-07
1.00274e-07
9.85147e-08
9.75684e-08
9.83507e-08
9.62548e-08
9.35221e-08
9.41135e-08
9.40078e-08
9.64247e-08
9.69144e-08
1.01215e-07
1.06496e-07
1.02397e-07
9.74083e-08
9.37974e-08
9.35583e-08
9.34271e-08
7.91598e-08
5.45294e-08
4.04053e-08
2.49477e-08
3.16068e-09
3.33406e-09
1.39384e-08
1.36942e-08
7.97714e-09
3.93793e-09
2.16384e-09
1.19154e-09
5.36514e-10
1.82963e-10
6.00739e-11
7.90501e-12
3.64864e-11
5.04075e-11
3.40359e-11
3.68892e-11
8.16433e-11
1.5456e-10
2.36467e-10
2.92357e-10
3.283e-10
3.71954e-10
4.59385e-10
5.85985e-10
7.12971e-10
8.44826e-10
9.81176e-10
1.1339e-09
1.29156e-09
1.46978e-09
1.64982e-09
1.85708e-09
2.06392e-09
2.2308e-09
2.40738e-09
2.54657e-09
2.65998e-09
2.84099e-09
3.05199e-09
3.19912e-09
3.29116e-09
3.28489e-09
3.38285e-09
3.54863e-09
3.63798e-09
3.68523e-09
3.62527e-09
3.51839e-09
3.43301e-09
3.41054e-09
3.49056e-09
3.57716e-09
3.60366e-09
3.59999e-09
3.50486e-09
3.4133e-09
3.42584e-09
3.56111e-09
3.93841e-09
4.42325e-09
4.77426e-09
4.99588e-09
5.56776e-09
6.65288e-09
7.96144e-09
9.07686e-09
1.02172e-08
1.13564e-08
1.23723e-08
1.29691e-08
1.30735e-08
1.28608e-08
1.20319e-08
9.48145e-09
4.49491e-09
2.39684e-10
4.94003e-10
3.86582e-10
2.97687e-09
3.92882e-09
5.68021e-09
1.36557e-08
6.38134e-09
3.35467e-10
2.34466e-10
2.29544e-10
2.11548e-10
2.04536e-10
1.97209e-10
1.88802e-10
1.79371e-10
1.67239e-10
1.52325e-10
1.33869e-10
1.113e-10
9.07251e-11
7.53102e-11
5.54653e-11
3.16414e-11
2.21715e-12
3.35009e-11
6.82832e-11
9.93995e-11
1.25937e-10
1.41718e-10
1.45093e-10
1.35825e-10
1.14361e-10
8.18126e-11
4.10312e-11
2.64412e-12
4.19785e-11
7.01912e-11
8.25884e-11
7.96807e-11
6.67958e-11
4.87671e-11
2.89577e-11
1.21926e-11
1.51126e-12
4.65234e-12
7.71898e-12
8.21159e-12
7.34293e-12
6.04937e-12
4.71315e-12
3.76978e-12
2.95131e-12
2.51114e-12
2.02851e-12
1.86135e-12
1.52847e-12
1.47267e-12
1.21498e-12
1.38807e-12
2.6401e-08
3.82406e-08
3.63127e-08
3.33273e-08
3.13311e-08
2.88736e-08
2.65607e-08
2.30518e-08
1.88261e-08
1.3112e-08
7.66217e-09
3.04716e-09
1.93673e-09
5.75303e-09
1.32283e-08
1.93615e-08
2.27008e-08
1.13654e-08
3.20689e-08
3.93232e-06
9.86445e-06
2.62685e-06
2.83916e-05
5.41465e-05
4.66846e-05
3.74092e-05
3.96512e-05
3.61891e-05
2.75891e-05
2.06449e-05
1.61454e-05
1.3213e-05
1.16144e-05
1.11103e-05
1.08263e-05
1.05027e-05
1.02073e-05
1.00275e-05
9.93254e-06
1.00177e-05
9.81779e-06
9.55358e-06
9.62847e-06
9.63191e-06
9.90111e-06
9.97507e-06
1.04398e-05
1.10115e-05
1.06483e-05
1.01969e-05
9.87289e-06
9.88871e-06
9.92811e-06
8.52755e-06
6.00748e-06
4.53938e-06
2.84794e-06
2.05173e-07
1.92809e-07
9.11256e-07
1.14873e-06
7.3499e-07
3.82156e-07
2.15935e-07
1.17048e-07
4.89289e-08
1.55808e-08
5.28605e-09
5.67812e-10
4.03991e-09
5.37963e-09
3.49864e-09
3.81497e-09
8.58092e-09
1.63622e-08
2.49992e-08
3.08618e-08
3.45723e-08
3.9083e-08
4.84106e-08
6.18265e-08
7.52206e-08
8.91187e-08
1.03515e-07
1.19647e-07
1.36316e-07
1.55169e-07
1.74228e-07
1.96221e-07
2.18092e-07
2.35721e-07
2.54375e-07
2.68985e-07
2.80926e-07
3.00068e-07
3.22294e-07
3.377e-07
3.47287e-07
3.46574e-07
3.56862e-07
3.74175e-07
3.83408e-07
3.88243e-07
3.81851e-07
3.70586e-07
3.61591e-07
3.59141e-07
3.67319e-07
3.7619e-07
3.78823e-07
3.78381e-07
3.68546e-07
3.59153e-07
3.60663e-07
3.74887e-07
4.14058e-07
4.64325e-07
5.01209e-07
5.2508e-07
5.84908e-07
6.97071e-07
8.32448e-07
9.48266e-07
1.06662e-06
1.18456e-06
1.28968e-06
1.35194e-06
1.36325e-06
1.34089e-06
1.25474e-06
9.95346e-07
4.88156e-07
5.40279e-08
2.59239e-08
1.92264e-08
2.68357e-07
3.63074e-07
5.78165e-07
1.38617e-06
6.77453e-07
1.41555e-09
4.32607e-09
2.15444e-09
2.38508e-09
2.52664e-09
2.92605e-09
3.47985e-09
4.05979e-09
4.74843e-09
5.56166e-09
6.42762e-09
7.31639e-09
8.38404e-09
9.48452e-09
1.04229e-08
1.15776e-08
1.28762e-08
1.41114e-08
1.52233e-08
1.60866e-08
1.63383e-08
1.61845e-08
1.56514e-08
1.48042e-08
1.3723e-08
1.24734e-08
1.11569e-08
9.89424e-09
8.86283e-09
8.21003e-09
8.01777e-09
8.29257e-09
8.95689e-09
9.90955e-09
1.10173e-08
1.2249e-08
1.34981e-08
1.48136e-08
1.59793e-08
1.71341e-08
1.80372e-08
1.89212e-08
1.93168e-08
1.98293e-08
1.97567e-08
1.99816e-08
1.95066e-08
1.95288e-08
1.87817e-08
1.87065e-08
1.78316e-08
1.79795e-08
8.27689e-08
4.12636e-07
4.31173e-07
4.30667e-07
4.29799e-07
4.28565e-07
4.28251e-07
4.26031e-07
4.22633e-07
4.05393e-07
3.77337e-07
3.10808e-07
2.34925e-07
1.55253e-07
1.04519e-07
1.22501e-07
2.15705e-07
2.57266e-08
1.48782e-06
6.17314e-05
0.000146742
3.96567e-05
0.000388108
0.000731494
0.000631335
0.000505414
0.000534472
0.000492119
0.000380165
0.000288248
0.000228098
0.00018845
0.000166898
0.000160255
0.000156839
0.000152728
0.000149111
0.000146906
0.000145977
0.000147522
0.000145119
0.000141647
0.000143115
0.000143471
0.000147818
0.000149284
0.000156653
0.000165774
0.00016136
0.000155583
0.000151767
0.000153397
0.00015633
0.00013765
0.000100278
7.96423e-05
5.66133e-05
1.13581e-05
4.43756e-06
9.32398e-06
1.50039e-05
1.04905e-05
5.66997e-06
3.23356e-06
1.7237e-06
7.03564e-07
2.31856e-07
8.6106e-08
1.20098e-08
6.27025e-08
8.48242e-08
5.59634e-08
6.19588e-08
1.37672e-07
2.60786e-07
3.97892e-07
4.91165e-07
5.50311e-07
6.22052e-07
7.6992e-07
9.82295e-07
1.19457e-06
1.41519e-06
1.64377e-06
1.89998e-06
2.16474e-06
2.46439e-06
2.76758e-06
3.11759e-06
3.46597e-06
3.74711e-06
4.04418e-06
4.27652e-06
4.46615e-06
4.76928e-06
5.12077e-06
5.36348e-06
5.51393e-06
5.50121e-06
5.66202e-06
5.93282e-06
6.07551e-06
6.14891e-06
6.04485e-06
5.86416e-06
5.71938e-06
5.67761e-06
5.80257e-06
5.93806e-06
5.97555e-06
5.9648e-06
5.80701e-06
5.65706e-06
5.67866e-06
5.89978e-06
6.51029e-06
7.29173e-06
7.86418e-06
8.23685e-06
9.17254e-06
1.09212e-05
1.30294e-05
1.48346e-05
1.66827e-05
1.85249e-05
2.01677e-05
2.11424e-05
2.13219e-05
2.09698e-05
1.9608e-05
1.55266e-05
7.61305e-06
9.11151e-07
3.04449e-07
2.42008e-07
4.0504e-06
5.38561e-06
9.03562e-06
2.12999e-05
1.03764e-05
1.03165e-07
1.70619e-07
1.03363e-07
1.00337e-07
9.39343e-08
9.31259e-08
9.32656e-08
9.35832e-08
9.67963e-08
9.60566e-08
9.39499e-08
9.32604e-08
9.65674e-08
9.96695e-08
9.49023e-08
9.05176e-08
8.49808e-08
7.84479e-08
7.65317e-08
7.58516e-08
7.16362e-08
6.94455e-08
6.93934e-08
7.10591e-08
7.397e-08
7.71954e-08
8.02237e-08
8.27622e-08
8.58327e-08
9.22402e-08
1.06476e-07
1.32623e-07
1.70715e-07
2.15808e-07
2.59194e-07
2.95431e-07
3.22213e-07
3.42058e-07
3.55023e-07
3.65324e-07
3.75412e-07
3.84544e-07
3.89416e-07
3.94083e-07
3.95239e-07
3.97699e-07
3.96074e-07
3.96746e-07
3.93318e-07
3.93272e-07
3.88419e-07
3.88247e-07
5.68774e-07
3.47902e-06
3.17454e-06
2.73364e-06
2.45553e-06
2.14504e-06
1.90947e-06
1.5953e-06
1.32924e-06
9.87743e-07
8.87531e-07
8.52462e-07
1.16243e-06
1.42963e-06
1.39089e-06
1.27178e-06
1.80198e-06
7.34106e-07
2.57333e-05
0.000432831
0.000938569
0.000233988
0.00204489
0.00364662
0.00307044
0.00241406
0.00254166
0.0023429
0.00182048
0.00138317
0.00109361
0.000900497
0.000796436
0.000766109
0.00075386
0.000737169
0.00072472
0.000717987
0.000722415
0.00073789
0.000736407
0.000726386
0.0007456
0.000756653
0.000792984
0.000812039
0.000867794
0.00093404
0.000929046
0.000914447
0.000912178
0.000942293
0.000987151
0.000900652
0.00068389
0.000570346
0.000445341
0.000130125
3.69711e-05
3.40538e-05
8.61252e-05
6.71867e-05
3.79274e-05
2.18279e-05
1.14878e-05
4.63778e-06
1.59954e-06
6.45245e-07
1.11279e-07
4.37872e-07
6.0331e-07
4.03582e-07
4.54461e-07
9.9899e-07
1.87975e-06
2.86418e-06
3.53558e-06
3.96223e-06
4.47884e-06
5.53858e-06
7.05844e-06
8.57948e-06
1.01627e-05
1.18033e-05
1.36424e-05
1.55426e-05
1.76944e-05
1.9873e-05
2.23885e-05
2.48945e-05
2.69176e-05
2.90517e-05
3.07165e-05
3.2071e-05
3.42326e-05
3.67355e-05
3.84536e-05
3.95098e-05
3.93979e-05
4.05209e-05
4.24201e-05
4.34017e-05
4.38899e-05
4.31125e-05
4.17921e-05
4.07282e-05
4.03951e-05
4.12398e-05
4.21551e-05
4.23766e-05
4.22569e-05
4.11015e-05
4.00085e-05
4.01281e-05
4.16526e-05
4.59032e-05
5.13294e-05
5.52838e-05
5.78583e-05
6.43796e-05
7.65507e-05
9.12005e-05
0.000103737
0.000116587
0.000129392
0.000140801
0.000147547
0.000148744
0.000146196
0.000136518
0.000107801
5.27549e-05
6.7196e-06
1.49005e-06
1.33212e-06
2.72116e-05
3.54926e-05
6.23429e-05
0.000144618
6.9999e-05
9.70395e-07
1.59861e-06
8.81567e-07
7.94553e-07
6.70578e-07
6.0116e-07
5.30866e-07
4.89507e-07
4.54987e-07
3.65169e-07
2.94131e-07
2.34102e-07
2.22957e-07
2.12124e-07
1.24505e-07
4.76896e-08
2.34823e-08
7.3573e-08
4.45055e-08
1.91885e-08
7.76423e-08
1.77328e-07
3.06776e-07
4.45987e-07
5.72941e-07
6.5928e-07
6.76857e-07
5.95054e-07
3.95374e-07
9.4887e-08
2.28989e-07
4.64853e-07
5.39098e-07
4.57073e-07
2.79257e-07
7.10232e-08
1.23384e-07
3.02339e-07
4.46029e-07
5.616e-07
6.79893e-07
7.99588e-07
8.60685e-07
9.2989e-07
9.31239e-07
9.62835e-07
9.17722e-07
9.23161e-07
8.46278e-07
8.37573e-07
7.43925e-07
7.44888e-07
5.32887e-05
5.20411e-05
5.07203e-05
4.88476e-05
4.75502e-05
4.59046e-05
4.44314e-05
4.20908e-05
3.93339e-05
3.4508e-05
2.95341e-05
2.1521e-05
1.72296e-05
1.25755e-05
1.17846e-05
9.62204e-06
1.21254e-05
9.10054e-06
0.000200313
0.00192921
0.00364456
0.000861358
0.00604008
0.0103137
0.0085417
0.00667292
0.00696453
0.00646433
0.00512259
0.00397537
0.00321125
0.00269438
0.00241423
0.0023352
0.00230713
0.00226628
0.00223704
0.00222764
0.00224435
0.0022942
0.00229378
0.00226916
0.00233031
0.0023702
0.00248819
0.00255748
0.0027438
0.00297291
0.00299007
0.002979
0.00301154
0.00317499
0.00342455
0.00325067
0.00259106
0.00230002
0.00197407
0.000735635
0.000150007
3.01072e-05
0.000309123
0.000279848
0.000166601
9.70115e-05
5.04542e-05
2.01868e-05
7.33681e-06
3.2098e-06
6.54521e-07
2.02538e-06
2.84589e-06
1.92969e-06
2.21132e-06
4.8106e-06
8.99083e-06
1.36794e-05
1.68843e-05
1.89228e-05
2.13858e-05
2.64184e-05
3.36247e-05
4.08427e-05
4.83644e-05
5.61557e-05
6.48876e-05
7.39028e-05
8.41144e-05
9.44523e-05
0.000106389
0.000118278
0.00012786
0.000137941
0.000145756
0.00015207
0.000162166
0.000173836
0.000181753
0.000186521
0.000185769
0.000190805
0.000199433
0.000203722
0.000205693
0.000201734
0.000195254
0.000189981
0.000188104
0.000191663
0.00019552
0.00019616
0.000195219
0.000189526
0.000184152
0.000184339
0.000190923
0.000209832
0.000233923
0.000251262
0.00026239
0.00029127
0.000345333
0.000410274
0.000465635
0.000522323
0.000578693
0.00062868
0.000657776
0.000662038
0.000649429
0.000604832
0.000475929
0.000232496
3.22933e-05
3.02496e-06
3.69858e-06
0.0001137
0.000146174
0.000268167
0.000613585
0.000296372
6.79127e-06
9.68774e-06
5.80168e-06
5.31489e-06
4.69044e-06
4.37854e-06
4.11976e-06
3.97839e-06
3.62745e-06
3.2937e-06
3.10126e-06
2.67685e-06
2.55151e-06
2.3066e-06
1.66907e-06
1.22814e-06
9.40809e-07
8.09485e-07
1.02456e-06
1.30843e-06
1.54747e-06
2.03076e-06
2.69679e-06
3.41822e-06
4.04778e-06
4.38832e-06
4.26228e-06
3.55847e-06
2.39897e-06
1.302e-06
1.17692e-06
2.85816e-06
6.45441e-06
1.12457e-05
1.60972e-05
2.01956e-05
2.31767e-05
2.52873e-05
2.66203e-05
2.80662e-05
3.13994e-05
3.38339e-05
3.5233e-05
3.64448e-05
3.68057e-05
3.73539e-05
3.70551e-05
3.71865e-05
3.65051e-05
3.64716e-05
3.55557e-05
3.57186e-05
2.58898e-05
9.96546e-07
1.12538e-06
1.91114e-06
2.60811e-06
3.56607e-06
4.5e-06
6.22052e-06
8.5895e-06
1.3805e-05
2.11047e-05
3.63229e-05
4.85531e-05
5.35715e-05
6.48809e-05
5.74571e-05
7.16141e-05
6.49521e-05
0.00104279
0.00626459
0.0100648
0.00235049
0.0127207
0.0210074
0.016989
0.0130326
0.0135033
0.012484
0.00987303
0.00765021
0.00617468
0.00517589
0.00464083
0.00450111
0.00446922
0.00440909
0.00437785
0.0043776
0.00445261
0.0045914
0.00464433
0.00463693
0.0048178
0.00494814
0.00525655
0.00545971
0.00592925
0.00650195
0.00664779
0.00673566
0.00696428
0.00749876
0.00826909
0.00809264
0.00672893
0.00631984
0.00592866
0.00261978
0.00039764
0.000257455
0.000784942
0.000889149
0.000567414
0.000335819
0.000172628
6.84371e-05
2.64979e-05
1.26074e-05
2.96133e-06
7.37001e-06
1.05859e-05
7.28216e-06
8.49623e-06
1.82803e-05
3.39173e-05
5.15139e-05
6.35581e-05
7.12096e-05
8.04267e-05
9.9208e-05
0.000126055
0.000152942
0.000180963
0.000209946
0.000242388
0.000275816
0.00031365
0.000351886
0.000395996
0.000439815
0.000474913
0.000511645
0.000539718
0.000562029
0.000598054
0.000639586
0.000667042
0.000682744
0.000678184
0.000694533
0.00072361
0.000736778
0.000741499
0.000724851
0.000699257
0.000678026
0.000668862
0.000678794
0.000689642
0.000689148
0.000683113
0.000660647
0.000639433
0.000637397
0.000657148
0.000718408
0.000796515
0.000851355
0.000885197
0.000977833
0.00115306
0.00136294
0.00154022
0.00172085
0.00189941
0.00205586
0.00214337
0.00214926
0.0020996
0.00194594
0.0015231
0.000742808
0.000115419
5.80978e-06
1.53672e-06
0.000334061
0.000423759
0.000821413
0.00184393
0.000886826
2.76418e-05
3.64003e-05
2.13588e-05
1.88815e-05
1.60571e-05
1.44454e-05
1.31968e-05
1.18384e-05
1.06027e-05
9.96417e-06
9.55846e-06
8.6354e-06
9.04059e-06
9.26606e-06
8.52565e-06
8.99083e-06
1.03868e-05
1.23086e-05
1.49562e-05
1.72575e-05
1.84048e-05
1.9263e-05
1.98545e-05
2.01437e-05
2.0229e-05
2.00702e-05
1.97241e-05
1.92335e-05
1.87706e-05
1.82594e-05
1.72094e-05
1.51107e-05
1.23004e-05
9.8208e-06
8.5748e-06
8.61549e-06
9.35492e-06
1.01296e-05
1.08885e-05
1.38452e-05
1.35091e-05
1.18117e-05
1.08837e-05
1.00618e-05
9.86849e-06
9.53415e-06
9.77149e-06
9.6995e-06
1.02498e-05
1.03307e-05
1.10721e-05
1.09978e-05
0.000142373
0.0001263
0.000120203
0.000112086
0.000106742
9.97943e-05
9.30194e-05
8.24846e-05
6.92778e-05
5.04184e-05
3.1628e-05
1.1262e-05
2.3533e-06
4.06092e-05
9.51321e-05
0.000171113
0.000289698
0.000346498
0.00400962
0.015786
0.0219355
0.00575493
0.0229704
0.0365767
0.0290686
0.0221406
0.0227906
0.0210491
0.01672
0.013054
0.0106179
0.00896514
0.00807972
0.00785198
0.00780354
0.00770846
0.00766175
0.0076619
0.00776955
0.00799935
0.00807452
0.00805926
0.00836298
0.0085893
0.00912475
0.00948772
0.0103232
0.0113608
0.0116768
0.0119117
0.012391
0.0134781
0.0151272
0.0152619
0.0132024
0.0129493
0.0132166
0.00703523
0.000795212
0.00154066
0.00136735
0.00229915
0.0016167
0.00098241
0.000500126
0.000196589
8.2335e-05
4.27613e-05
1.13707e-05
2.30219e-05
3.39051e-05
2.36799e-05
2.81432e-05
5.98514e-05
0.000110151
0.000166905
0.000205722
0.000230241
0.000259654
0.000319546
0.000404957
0.000490295
0.000579027
0.000670436
0.000772395
0.000876915
0.00099483
0.00111332
0.00124957
0.00138388
0.00148963
0.00159914
0.00168015
0.00174202
0.00184487
0.00196304
0.00203662
0.00207324
0.00204811
0.002085
0.00215876
0.0021844
0.00218479
0.00212255
0.00203484
0.00196034
0.00192082
0.00193546
0.0019524
0.00193734
0.00190687
0.00183148
0.00176025
0.00174161
0.0017815
0.00193096
0.00212259
0.00225075
0.00232318
0.00254691
0.00298008
0.00349668
0.00392564
0.0043587
0.00478209
0.00514457
0.00533072
0.00531034
0.00514986
0.0047319
0.00365716
0.00175097
0.000256646
2.90099e-06
2.69384e-05
0.000782705
0.000951748
0.00187307
0.00412471
0.00193917
4.23789e-05
7.53501e-05
3.79353e-05
3.68138e-05
3.47804e-05
3.45452e-05
3.65621e-05
3.97803e-05
4.23685e-05
4.65421e-05
5.03624e-05
5.35675e-05
5.93195e-05
6.48116e-05
6.72314e-05
7.06669e-05
7.40381e-05
7.62678e-05
7.86881e-05
7.99714e-05
7.78448e-05
7.48751e-05
7.18292e-05
6.90945e-05
6.7336e-05
6.67911e-05
6.80356e-05
7.16361e-05
7.85992e-05
8.94595e-05
0.00010311
0.000115856
0.000122526
0.000119045
0.000105359
8.61933e-05
6.75281e-05
5.26971e-05
4.37598e-05
4.46482e-05
5.34187e-05
6.0727e-05
6.46202e-05
6.82394e-05
6.92314e-05
7.08848e-05
6.98179e-05
7.01538e-05
6.79525e-05
6.77059e-05
6.48622e-05
6.57476e-05
4.47202e-05
3.42016e-05
3.56428e-05
3.85074e-05
4.06942e-05
4.35539e-05
4.62784e-05
5.07024e-05
5.58091e-05
6.4933e-05
7.33001e-05
8.66912e-05
7.57541e-05
6.39853e-05
0.000103843
0.000273743
0.000657456
0.00137957
0.01167
0.0322219
0.039702
0.0106613
0.0380147
0.0582094
0.0451866
0.0340007
0.0347009
0.031896
0.0253088
0.0197955
0.016151
0.0136867
0.0123804
0.0120565
0.012002
0.0118736
0.0118249
0.0118583
0.0120594
0.0124355
0.0125823
0.0125894
0.0130915
0.0134712
0.0143365
0.0149339
0.0162707
0.0179217
0.0184669
0.0188944
0.0196525
0.0213478
0.0240201
0.0243173
0.0211487
0.0211342
0.0224173
0.0136904
0.000852324
0.00504093
0.00101041
0.0048409
0.00396682
0.00251644
0.00127565
0.000498659
0.000230969
0.000131423
3.90434e-05
6.4708e-05
9.80591e-05
6.95771e-05
8.42638e-05
0.000176974
0.000322511
0.000486895
0.00059877
0.000668414
0.000751424
0.000920827
0.00116147
0.00140018
0.00164655
0.00189788
0.00217587
0.00245751
0.00277269
0.00308513
0.00344167
0.00378717
0.00404881
0.0043143
0.00449694
0.00462359
0.00485303
0.00511653
0.00525903
0.00530268
0.00518882
0.00522966
0.00535985
0.00536898
0.00531645
0.00511365
0.00485352
0.00462866
0.00448892
0.00447608
0.00446854
0.00438871
0.00427571
0.00406515
0.00386833
0.00379038
0.00384121
0.00412618
0.0044957
0.00472712
0.00484277
0.00527311
0.0061279
0.00714017
0.00796348
0.0087858
0.00957846
0.0102371
0.0105366
0.0104227
0.0100312
0.00913822
0.00696168
0.00328645
0.000495165
3.27477e-05
3.3217e-05
0.00138665
0.0016168
0.00346599
0.00738964
0.00343387
0.000116029
0.000197609
0.000117571
0.000116935
0.000108162
0.000106297
0.000109786
0.00010966
0.000109631
0.000110663
0.000111736
0.000110852
0.000114505
0.000117309
0.000113267
0.000111355
0.000111495
0.000113474
0.000120519
0.000129819
0.000136326
0.000143689
0.000152167
0.000160702
0.00016892
0.000175293
0.000178931
0.000178679
0.000174694
0.000168198
0.000161833
0.000158563
0.00015992
0.000162978
0.000161705
0.000151796
0.000134689
0.000114203
8.86897e-05
7.41506e-05
7.31264e-05
7.08719e-05
6.61911e-05
6.17951e-05
5.99241e-05
5.83818e-05
5.82564e-05
5.7796e-05
5.84406e-05
5.85645e-05
5.96895e-05
5.9663e-05
1.81114e-05
1.17687e-05
7.40036e-06
5.51929e-06
4.82936e-06
4.2848e-06
4.28927e-06
4.82587e-06
6.1428e-06
9.56623e-06
1.57553e-05
3.90098e-05
9.12146e-05
0.00015265
0.000257038
0.000506902
0.00120457
0.00384986
0.0264044
0.0556244
0.0623796
0.0173533
0.0551486
0.0875468
0.0664121
0.0492738
0.0498727
0.0456242
0.0361198
0.0282457
0.0230632
0.0195691
0.0177229
0.0172771
0.0172153
0.0170499
0.0169972
0.0170597
0.0173573
0.0179148
0.0181394
0.0181703
0.0189107
0.0194792
0.0207479
0.0216333
0.0235826
0.0259846
0.0267718
0.0274117
0.0285972
0.0311551
0.0349921
0.0351805
0.0302763
0.0299855
0.0317733
0.0185243
0.00135895
0.0115903
0.00269018
0.00787842
0.00830403
0.005656
0.002875
0.00112368
0.00059875
0.00037502
0.000123031
0.000167601
0.000262675
0.000189986
0.000234055
0.000483597
0.000869102
0.00130331
0.00159492
0.00177058
0.00197757
0.00240359
0.00300526
0.00359264
0.00418908
0.00478565
0.00543525
0.00607893
0.00678901
0.00747544
0.00824928
0.00897646
0.00948632
0.0099869
0.0102804
0.0104363
0.0108126
0.0112516
0.0114164
0.0113629
0.0109807
0.0109293
0.0110633
0.0109479
0.0107136
0.0101872
0.00956259
0.00902282
0.00865994
0.00854715
0.00844741
0.00821608
0.00793012
0.00747258
0.00705248
0.00685751
0.00689836
0.00735484
0.00795125
0.00829954
0.0084496
0.00914303
0.0105479
0.0121964
0.0135088
0.0148051
0.0160356
0.0170257
0.0174116
0.0171131
0.0163622
0.0147896
0.0111466
0.00526586
0.000880681
0.000118764
2.31492e-05
0.00207159
0.00237352
0.00525692
0.0110415
0.00508294
0.000178939
0.00029506
0.000142851
0.000129726
0.000105764
0.000100946
9.60586e-05
8.83693e-05
8.53032e-05
8.325e-05
8.27498e-05
8.04996e-05
8.72771e-05
9.42586e-05
9.30545e-05
9.85975e-05
0.000110697
0.000128773
0.00015731
0.000192612
0.000226761
0.00026358
0.000302158
0.000338268
0.000368517
0.000387045
0.000388554
0.00036798
0.000325412
0.000266034
0.000200555
0.000141309
9.79507e-05
7.21012e-05
5.97721e-05
5.44224e-05
5.11359e-05
4.64229e-05
4.03685e-05
1.21356e-05
1.40354e-06
1.71983e-06
2.57737e-06
1.96101e-06
1.26581e-06
1.00389e-06
7.42601e-07
6.62247e-07
4.6906e-07
3.55603e-07
1.06902e-07
1.50842e-07
1.69343e-05
9.97152e-06
3.19512e-06
2.68716e-06
3.09979e-06
4.22077e-06
6.28842e-06
1.07686e-05
1.87648e-05
3.53796e-05
6.66855e-05
0.000120645
0.000193847
0.000364715
0.000629596
0.00113723
0.00252636
0.00814395
0.0488921
0.0872058
0.0922857
0.0313728
0.0685497
0.127127
0.0948611
0.0691382
0.0692421
0.0629441
0.049649
0.0387552
0.0316258
0.0268431
0.0243231
0.023727
0.0236549
0.0234465
0.0233869
0.0234898
0.0239108
0.0247006
0.0250283
0.0250972
0.0261363
0.0269481
0.0287233
0.0299814
0.0326936
0.0360581
0.0371942
0.0381389
0.0397663
0.0431604
0.0482036
0.0482568
0.0410583
0.0398869
0.041056
0.0203665
0.00652217
0.0212665
0.0125472
0.00865207
0.0143425
0.010864
0.00558019
0.00217127
0.00142705
0.000995219
0.000357377
0.000401551
0.000656128
0.000487088
0.000606019
0.00122064
0.00215037
0.00318615
0.00386193
0.00424283
0.00468399
0.00561582
0.00692348
0.00816546
0.00939306
0.0105835
0.0118513
0.0130669
0.014384
0.0156119
0.0169798
0.0182098
0.0189666
0.0196779
0.0199631
0.0199786
0.0204097
0.0209464
0.0209716
0.0206042
0.0196736
0.0193534
0.0193653
0.0189504
0.0183497
0.0172767
0.0160693
0.0150308
0.0143033
0.0139952
0.0137165
0.0132364
0.0126813
0.0118706
0.0111353
0.0107589
0.0107504
0.0113741
0.0122013
0.0126518
0.0128082
0.0137694
0.0157669
0.0181033
0.0199289
0.0217178
0.0233945
0.024709
0.0251477
0.0246037
0.0234097
0.0210144
0.0158531
0.0076022
0.00146089
0.000358588
9.12759e-05
0.00265179
0.00300967
0.00711089
0.0146642
0.00676447
0.000346376
0.000478494
0.000229529
0.000199379
0.000162627
0.000147032
0.000131665
0.000122863
0.000116217
0.000113653
0.000114976
0.000115625
0.000131091
0.000150005
0.000160965
0.000184452
0.000220077
0.000265534
0.000326074
0.000398577
0.000468717
0.000539488
0.000609838
0.000672645
0.000722743
0.000750668
0.000747988
0.000706948
0.000629035
0.000522043
0.000399757
0.000278699
0.000176574
0.000102476
5.6926e-05
3.28582e-05
2.22154e-05
1.79508e-05
2.56785e-05
3.93786e-05
1.71703e-05
8.31185e-07
4.37903e-06
4.64961e-06
4.51517e-06
4.05712e-06
3.90006e-06
3.79209e-06
3.74568e-06
3.63575e-06
3.40848e-06
3.21065e-06
1.81572e-05
1.51806e-05
2.56747e-06
1.37128e-06
1.73077e-06
3.06593e-06
5.69833e-06
1.15656e-05
2.17432e-05
4.35449e-05
8.42489e-05
0.000162913
0.000342325
0.000744261
0.00128413
0.00237288
0.00532477
0.015068
0.078907
0.131151
0.134723
0.0582332
0.0808582
0.178318
0.13311
0.0950201
0.0939191
0.0847389
0.0665793
0.0518343
0.042234
0.0358323
0.0324673
0.031681
0.0315916
0.0313333
0.0312614
0.0314183
0.0319834
0.033059
0.033505
0.0336196
0.0350114
0.0361176
0.038495
0.0402053
0.0438128
0.0483281
0.0498463
0.0511254
0.053222
0.0576559
0.0641933
0.0640447
0.0536909
0.0508013
0.0492929
0.021658
0.0204717
0.0356413
0.0303467
0.00271554
0.0194672
0.0173332
0.00892622
0.00331385
0.00302989
0.00240342
0.000944698
0.000869735
0.0014966
0.00114301
0.0014251
0.00277074
0.00476791
0.00694753
0.00829747
0.00897796
0.00975414
0.0114924
0.0139207
0.0161439
0.0182689
0.0202526
0.0223159
0.0242173
0.0262453
0.0280548
0.0300599
0.0317686
0.0326233
0.0333819
0.0334153
0.0330137
0.0333039
0.0337645
0.0334201
0.0324819
0.0307175
0.0299268
0.0296571
0.028764
0.0276283
0.0258287
0.0238702
0.0221867
0.0209794
0.0203886
0.0198598
0.0190666
0.018179
0.0169559
0.0158492
0.0152404
0.0151453
0.0159049
0.0169385
0.017468
0.0176109
0.0188091
0.0213798
0.0243967
0.0267195
0.0289807
0.0310782
0.032683
0.0331405
0.0323131
0.0306013
0.0274154
0.0207398
0.0100869
0.00223685
0.000755638
0.000310541
0.00306637
0.00343283
0.00895738
0.0179878
0.00828452
0.000556518
0.000707822
0.000339167
0.000298391
0.000245598
0.000221953
0.000206721
0.000200767
0.000199108
0.000205764
0.000219766
0.000234747
0.000270271
0.000314069
0.000349942
0.000403152
0.000473978
0.000557557
0.0006604
0.000782485
0.000898926
0.00101119
0.00111932
0.00121229
0.00128609
0.00132544
0.00132041
0.00125972
0.00114576
0.000988046
0.000802784
0.000608736
0.00042874
0.000277039
0.000162813
8.71043e-05
4.52021e-05
2.53759e-05
9.90856e-06
2.10585e-05
5.91276e-05
2.76185e-05
1.94791e-06
2.59876e-06
1.415e-06
1.73704e-06
1.38556e-06
1.12465e-06
9.53714e-07
7.81121e-07
3.83215e-07
3.44963e-07
2.5159e-05
2.38467e-05
3.44523e-06
1.54586e-06
2.08244e-06
4.11399e-06
8.11837e-06
1.71336e-05
3.26653e-05
6.6472e-05
0.000129973
0.000257504
0.000534116
0.00112394
0.00232152
0.00425526
0.0099332
0.0256842
0.116672
0.19156
0.194895
0.101582
0.0800716
0.23215
0.181512
0.128921
0.125255
0.111682
0.0875854
0.0680675
0.055359
0.0469261
0.0425029
0.041471
0.0413512
0.0410357
0.0409451
0.0411734
0.0419067
0.043334
0.0439186
0.0440926
0.0458999
0.0473656
0.050455
0.0527204
0.0573743
0.0632662
0.0652027
0.0668669
0.0694386
0.074986
0.0829753
0.0822535
0.0681533
0.0626029
0.0574992
0.016578
0.0388012
0.055927
0.0569284
0.012754
0.0195937
0.022315
0.0111216
0.0035051
0.00553699
0.00511703
0.00223055
0.00163267
0.00300607
0.00233721
0.00293942
0.00550522
0.00922593
0.0132123
0.0155253
0.0165234
0.0176637
0.0204456
0.0243267
0.0277413
0.0308964
0.0337254
0.0366059
0.0391493
0.0418355
0.0441207
0.0466633
0.0487122
0.0494493
0.0500406
0.0495762
0.0485051
0.0484495
0.0486512
0.0477455
0.0460431
0.0432599
0.041837
0.0411346
0.0396448
0.0378788
0.0352597
0.0324589
0.030047
0.0282822
0.0273371
0.0264942
0.0253311
0.0240665
0.0223859
0.0208575
0.0199751
0.0197545
0.0206102
0.021813
0.0223861
0.0224928
0.0239124
0.0270158
0.0306232
0.0334063
0.0360992
0.0385826
0.0404259
0.0408547
0.0397193
0.037554
0.0335901
0.025284
0.0123997
0.00308007
0.00117763
0.000534756
0.00336165
0.00366456
0.0106573
0.0208273
0.00954083
0.000763416
0.000952476
0.00045643
0.000411152
0.000347039
0.000324892
0.000317666
0.000320001
0.00033129
0.000354822
0.000389587
0.000427019
0.00049051
0.000568778
0.000639789
0.000733328
0.000852156
0.000988877
0.00115184
0.00134708
0.00153438
0.0017112
0.00187747
0.00201982
0.00213075
0.00219019
0.0021832
0.00209299
0.00192261
0.00168531
0.00140503
0.00110949
0.000831552
0.000587509
0.000386919
0.000233648
0.000131356
7.02559e-05
3.71646e-05
1.86484e-06
9.9802e-06
5.45255e-05
4.0727e-05
5.25131e-06
5.0152e-06
6.84248e-07
1.50233e-06
1.30419e-06
8.98846e-07
5.64959e-07
7.67873e-08
4.49793e-08
3.54439e-05
3.43465e-05
4.36464e-06
1.54614e-06
2.46018e-06
5.6085e-06
1.17574e-05
2.57382e-05
4.98824e-05
0.00010324
0.000204808
0.000410479
0.000852726
0.00180625
0.00370599
0.00699673
0.0167254
0.0404109
0.162578
0.271802
0.278022
0.167651
0.0454097
0.278809
0.23604
0.173034
0.166274
0.145899
0.113867
0.0880524
0.0714429
0.060532
0.054819
0.0534681
0.0532975
0.0529183
0.052807
0.0531331
0.0540681
0.0559273
0.0566779
0.056936
0.0592341
0.0611437
0.0650701
0.0680261
0.0738984
0.0814427
0.0838295
0.085973
0.0889992
0.0957721
0.105119
0.103406
0.0843427
0.0755326
0.065605
0.00557083
0.0531187
0.0841572
0.0918965
0.038759
0.0114072
0.0228667
0.0101337
0.00100653
0.00865461
0.00942816
0.00453743
0.00260319
0.00524411
0.00419668
0.00530461
0.00962195
0.0156113
0.0219028
0.0254206
0.0266854
0.0281566
0.0320537
0.0375164
0.0421698
0.0463509
0.0499633
0.0535756
0.0566422
0.059864
0.062486
0.0654287
0.067675
0.0681398
0.0683808
0.0672497
0.0653805
0.0648254
0.0645977
0.0630097
0.0604045
0.0565113
0.0543434
0.0531226
0.0509604
0.048462
0.0449534
0.0412595
0.0380698
0.0356879
0.034338
0.0331559
0.0315908
0.0299251
0.0277758
0.0258208
0.0246576
0.0242802
0.0251845
0.0265141
0.0271201
0.0271899
0.0287878
0.0323714
0.0365251
0.0397339
0.0428101
0.0456213
0.0476627
0.0480843
0.0466532
0.0440027
0.0391852
0.029452
0.0146527
0.00404485
0.00170041
0.000846746
0.0034381
0.00365463
0.0121386
0.0230793
0.0105354
0.00102216
0.00122935
0.000597258
0.000546133
0.000472277
0.000453237
0.000453422
0.000468591
0.000497847
0.000544868
0.000608821
0.000678986
0.000782049
0.000910165
0.00103497
0.00118962
0.00138093
0.00159824
0.00185143
0.00215644
0.00245134
0.00272391
0.0029794
0.00319531
0.00336101
0.00344975
0.00343977
0.00330557
0.0030507
0.00269335
0.00226878
0.00181944
0.001397
0.00102571
0.000716537
0.000470373
0.000292805
0.000172182
9.66702e-05
5.23729e-05
5.05743e-06
2.45857e-07
3.71676e-05
5.00445e-05
1.39158e-05
5.11578e-06
8.74377e-07
1.10913e-06
1.28123e-06
5.58668e-07
5.25743e-07
4.32729e-07
4.29247e-05
4.59157e-05
5.51085e-06
1.46778e-06
2.95147e-06
7.73148e-06
1.70134e-05
3.83097e-05
7.51192e-05
0.000157439
0.000315657
0.0006373
0.00133587
0.00282844
0.00578345
0.0110002
0.0264627
0.0596891
0.216659
0.375077
0.390637
0.265202
0.0128359
0.308883
0.292272
0.224234
0.220263
0.19072
0.147538
0.113207
0.0913859
0.0772118
0.0697873
0.0680068
0.0677746
0.0673361
0.067228
0.0676993
0.0688937
0.0712803
0.0722391
0.0726255
0.0755136
0.0779792
0.0828837
0.0867059
0.0939914
0.103525
0.106362
0.109139
0.112548
0.120739
0.13125
0.128091
0.102556
0.0892564
0.0715625
0.00448406
0.0774313
0.125221
0.132602
0.0760705
0.00563569
0.0175123
0.00422976
0.00615903
0.0117955
0.0152936
0.00793541
0.0036997
0.00823748
0.00699724
0.00871801
0.0150409
0.0236439
0.032467
0.0373295
0.0388221
0.040576
0.0454916
0.0524608
0.0583077
0.0634512
0.0677726
0.0719933
0.0754846
0.0790971
0.0819551
0.0851776
0.0874833