/*--------------------------------*- C++ -*----------------------------------*\
| =========                 |                                                 |
| \\      /  F ield         | OpenFOAM: The Open Source CFD Toolbox           |
|  \\    /   O peration     | Version:  2212                                  |
|   \\  /    A nd           | Website:  www.openfoam.com                      |
|    \\/     M anipulation  |                                                 |
\*---------------------------------------------------------------------------*/
FoamFile
{
    version     2.0;
    format      ascii;
    arch        "LSB;label=32;scalar=64";
    class       volScalarField;
    location    "5000";
    object      theta5_Scaled_;
}
// * * * * * * * * * * * * * * * * * * * * * * * * * * * * * * * * * * * * * //

dimensions      [0 0 0 0 0 0 0];

internalField   nonuniform List<scalar> 
10368
(
-4.34446e-07
-4.55628e-07
-4.36246e-07
-4.11108e-07
-3.94369e-07
-3.73751e-07
-3.54639e-07
-3.25929e-07
-2.91811e-07
-2.41821e-07
-1.91057e-07
-1.28538e-07
-8.04109e-08
-3.71263e-08
-1.40644e-08
-2.41725e-09
-4.79303e-10
-9.57499e-16
-3.05205e-14
-3.08851e-09
-8.24021e-08
-7.79203e-07
-2.75405e-06
-4.83199e-06
-5.62306e-06
-6.38787e-06
-6.87538e-06
-6.40525e-06
-5.56502e-06
-4.93669e-06
-4.41568e-06
-4.05891e-06
-3.78125e-06
-3.61825e-06
-3.39663e-06
-3.22449e-06
-3.00104e-06
-2.84227e-06
-2.62359e-06
-2.46604e-06
-2.23311e-06
-2.07124e-06
-1.87758e-06
-1.72872e-06
-1.5488e-06
-1.39793e-06
-1.22783e-06
-1.06781e-06
-8.68404e-07
-7.07372e-07
-5.51232e-07
-4.16344e-07
-2.8177e-07
-1.58111e-07
-7.23078e-08
-2.79694e-08
-5.07527e-09
-3.90987e-11
-1.97547e-11
-1.77092e-10
-1.07951e-10
-4.86997e-11
-2.41185e-11
-1.517e-11
-1.03636e-11
-3.24574e-12
-7.77261e-13
-2.91999e-13
-2.00392e-13
-2.08393e-13
-2.42672e-13
-3.53758e-13
-5.32639e-13
-7.3424e-13
-9.6108e-13
-1.23207e-12
-1.64074e-12
-2.16054e-12
-2.91308e-12
-3.8066e-12
-4.82447e-12
-6.0553e-12
-7.5658e-12
-9.42764e-12
-1.1645e-11
-1.43235e-11
-1.74433e-11
-2.11771e-11
-2.5508e-11
-3.05381e-11
-3.67788e-11
-4.42292e-11
-5.33594e-11
-6.46898e-11
-7.79004e-11
-9.27448e-11
-1.10287e-10
-1.3083e-10
-1.56181e-10
-1.85171e-10
-2.16659e-10
-2.52652e-10
-2.93506e-10
-3.41409e-10
-3.97353e-10
-4.61444e-10
-5.33296e-10
-6.11984e-10
-6.98102e-10
-7.95158e-10
-9.04365e-10
-1.02979e-09
-1.17328e-09
-1.33292e-09
-1.50845e-09
-1.69442e-09
-1.8888e-09
-2.098e-09
-2.33081e-09
-2.57659e-09
-2.81556e-09
-3.03935e-09
-3.26168e-09
-3.48399e-09
-3.70155e-09
-3.92033e-09
-4.15157e-09
-4.42302e-09
-4.73787e-09
-5.1202e-09
-5.63093e-09
-6.40508e-09
-7.5241e-09
-8.71856e-09
-9.64894e-09
-1.0752e-08
-1.21331e-08
-1.2612e-08
-1.21119e-08
-1.25038e-08
-1.40754e-08
-1.49835e-08
-1.58931e-08
-1.66792e-08
-1.74069e-08
-1.80507e-08
-1.86174e-08
-1.9073e-08
-1.94046e-08
-1.95731e-08
-1.95727e-08
-1.93232e-08
-1.88505e-08
-1.82466e-08
-1.75846e-08
-1.67164e-08
-1.54604e-08
-1.3617e-08
-1.12386e-08
-8.59186e-09
-5.96302e-09
-3.65234e-09
-1.8594e-09
-7.10197e-10
-1.58451e-10
-8.81526e-12
-8.9813e-15
-4.05043e-11
-5.66638e-10
-2.8667e-09
-9.04185e-09
-2.1372e-08
-4.12092e-08
-6.8474e-08
-1.00958e-07
-1.35761e-07
-1.69278e-07
-2.00537e-07
-2.2634e-07
-2.48214e-07
-2.63396e-07
-2.76284e-07
-2.83066e-07
-2.89923e-07
-2.90635e-07
-2.93596e-07
-2.90118e-07
-2.90615e-07
-2.84405e-07
-2.83637e-07
-2.75838e-07
-2.77069e-07
-0.000513854
-0.000539932
-0.000517232
-0.00048768
-0.000468021
-0.00044385
-0.000421596
-0.000388159
-0.000348608
-0.000290279
-0.000231076
-0.000157236
-0.00010003
-4.74147e-05
-1.87309e-05
-3.49222e-06
-7.24865e-07
-6.48088e-11
-1.99429e-13
-3.56781e-06
-8.41e-05
-0.000760309
-0.00266144
-0.00478327
-0.00579081
-0.00667111
-0.00725111
-0.00692174
-0.00614442
-0.00551261
-0.00496635
-0.00458417
-0.00427957
-0.0041015
-0.00386161
-0.00367699
-0.00343331
-0.00326104
-0.00302023
-0.00284868
-0.00259222
-0.00241307
-0.00219619
-0.00203069
-0.00182847
-0.00166023
-0.0014676
-0.00128945
-0.00106383
-0.000878817
-0.000696389
-0.000537184
-0.000376219
-0.00022371
-0.000110698
-4.72729e-05
-1.08519e-05
-2.65091e-07
-1.4726e-09
-1.01632e-07
-8.92705e-08
-4.77134e-08
-2.52611e-08
-1.61759e-08
-1.09939e-08
-3.50718e-09
-8.8408e-10
-3.46934e-10
-2.42981e-10
-2.55513e-10
-3.00327e-10
-4.36704e-10
-6.5466e-10
-8.99463e-10
-1.17602e-09
-1.51009e-09
-2.00886e-09
-2.64537e-09
-3.55466e-09
-4.63485e-09
-5.87257e-09
-7.37125e-09
-9.21096e-09
-1.14757e-08
-1.41777e-08
-1.74388e-08
-2.12497e-08
-2.58084e-08
-3.11138e-08
-3.73042e-08
-4.49537e-08
-5.40953e-08
-6.52668e-08
-7.90415e-08
-9.50968e-08
-1.13212e-07
-1.34571e-07
-1.59573e-07
-1.90149e-07
-2.25065e-07
-2.63146e-07
-3.06601e-07
-3.55951e-07
-4.13604e-07
-4.80656e-07
-5.57244e-07
-6.42924e-07
-7.36832e-07
-8.3974e-07
-9.55536e-07
-1.08571e-06
-1.23461e-06
-1.40416e-06
-1.59222e-06
-1.79825e-06
-2.01656e-06
-2.24509e-06
-2.49069e-06
-2.76162e-06
-3.04641e-06
-3.32411e-06
-3.58702e-06
-3.84852e-06
-4.11126e-06
-4.37035e-06
-4.63368e-06
-4.91344e-06
-5.23998e-06
-5.61821e-06
-6.0767e-06
-6.68049e-06
-7.56103e-06
-8.81797e-06
-1.01511e-05
-1.11983e-05
-1.24192e-05
-1.38781e-05
-1.44057e-05
-1.39729e-05
-1.44115e-05
-1.61028e-05
-1.7088e-05
-1.80654e-05
-1.89068e-05
-1.9678e-05
-2.03517e-05
-2.09334e-05
-2.13865e-05
-2.16947e-05
-2.18186e-05
-2.17483e-05
-2.13999e-05
-2.08034e-05
-2.00568e-05
-1.92413e-05
-1.8198e-05
-1.67323e-05
-1.46407e-05
-1.19924e-05
-9.08304e-06
-6.2303e-06
-3.75626e-06
-1.86829e-06
-6.86264e-07
-1.41125e-07
-5.91342e-09
-8.45723e-11
-6.38117e-08
-7.64639e-07
-3.65459e-06
-1.12021e-05
-2.60479e-05
-4.97235e-05
-8.20938e-05
-0.000120552
-0.000161722
-0.000201375
-0.000238377
-0.000268963
-0.000294924
-0.00031297
-0.000328299
-0.000336394
-0.000344558
-0.000345441
-0.00034897
-0.000344873
-0.000345469
-0.000338123
-0.00033721
-0.00032799
-0.00032948
-0.0381747
-0.0406571
-0.0390995
-0.0370508
-0.0356806
-0.0339884
-0.0324304
-0.0300709
-0.027264
-0.023039
-0.0186768
-0.0130465
-0.00855266
-0.00422571
-0.00176005
-0.000358719
-7.81447e-05
-4.24227e-08
-1.96797e-10
-0.000294826
-0.00593013
-0.0465391
-0.138433
-0.220165
-0.257022
-0.283774
-0.300239
-0.29488
-0.276061
-0.25851
-0.24189
-0.229466
-0.218972
-0.212695
-0.204082
-0.197339
-0.188049
-0.181343
-0.171569
-0.164492
-0.153458
-0.145476
-0.135402
-0.127544
-0.117546
-0.109037
-0.0988349
-0.0892575
-0.0764619
-0.0653894
-0.0538557
-0.0433013
-0.0320747
-0.0206657
-0.0112722
-0.0053627
-0.0015242
-7.79851e-05
-3.23701e-12
-3.37645e-06
-5.00958e-06
-3.29288e-06
-1.88178e-06
-1.22973e-06
-8.31591e-07
-2.70619e-07
-7.20973e-08
-2.96327e-08
-2.11999e-08
-2.25532e-08
-2.67614e-08
-3.88134e-08
-5.7927e-08
-7.93177e-08
-1.03581e-07
-1.33221e-07
-1.77027e-07
-2.33109e-07
-3.12137e-07
-4.06064e-07
-5.14329e-07
-6.4559e-07
-8.06761e-07
-1.0049e-06
-1.24169e-06
-1.52724e-06
-1.86199e-06
-2.26221e-06
-2.72954e-06
-3.27724e-06
-3.95126e-06
-4.75743e-06
-5.73963e-06
-6.94267e-06
-8.34422e-06
-9.93177e-06
-1.17989e-05
-1.39829e-05
-1.66285e-05
-1.96452e-05
-2.29482e-05
-2.67097e-05
-3.0982e-05
-3.59529e-05
-4.17081e-05
-4.82597e-05
-5.55704e-05
-6.35873e-05
-7.23807e-05
-8.22555e-05
-9.33398e-05
-0.000105961
-0.000120257
-0.000136055
-0.000153289
-0.000171546
-0.000190675
-0.000211188
-0.0002336
-0.000257045
-0.000279967
-0.000301897
-0.000323725
-0.000345754
-0.000367633
-0.00039009
-0.000414046
-0.000441842
-0.000473969
-0.000512794
-0.000563107
-0.000633435
-0.00073315
-0.000836972
-0.000919562
-0.00101385
-0.00112063
-0.00116148
-0.00113809
-0.00117219
-0.00129794
-0.00137215
-0.00144467
-0.00150673
-0.00156283
-0.00161097
-0.00165143
-0.00168145
-0.0016997
-0.00170351
-0.00169166
-0.00165832
-0.00160582
-0.00154137
-0.0014711
-0.00138327
-0.00126356
-0.00109782
-0.000892254
-0.00066942
-0.000453667
-0.000269006
-0.000130453
-4.58529e-05
-8.56283e-06
-2.4672e-07
-2.90289e-08
-7.04955e-06
-7.28571e-05
-0.000328107
-0.000972732
-0.00221152
-0.00414941
-0.00675294
-0.00979658
-0.0130086
-0.0160636
-0.0188827
-0.0211938
-0.0231413
-0.0244898
-0.0256294
-0.0262327
-0.0268369
-0.026907
-0.0271683
-0.0268724
-0.0269173
-0.0263822
-0.0263156
-0.025642
-0.0257538
-0.396116
-0.419188
-0.410992
-0.399714
-0.391883
-0.381864
-0.372315
-0.357128
-0.337895
-0.305887
-0.268472
-0.210997
-0.155353
-0.0887521
-0.0420889
-0.00999428
-0.00234439
-4.24628e-06
-2.46717e-07
-0.00666534
-0.0974651
-0.412478
-0.658598
-0.750989
-0.779758
-0.795761
-0.804375
-0.802018
-0.791805
-0.781263
-0.77046
-0.761762
-0.753909
-0.74905
-0.742088
-0.736429
-0.728113
-0.721856
-0.712073
-0.704678
-0.692134
-0.682389
-0.668982
-0.65779
-0.642136
-0.627689
-0.608315
-0.588391
-0.55737
-0.525619
-0.485884
-0.441786
-0.383256
-0.304069
-0.210704
-0.126328
-0.0490916
-0.00472854
-5.60584e-06
-2.09193e-05
-7.287e-05
-6.25835e-05
-3.91902e-05
-2.6241e-05
-1.76715e-05
-5.87995e-06
-1.66561e-06
-7.19987e-07
-5.2699e-07
-5.67607e-07
-6.80152e-07
-9.83737e-07
-1.46139e-06
-1.99383e-06
-2.60029e-06
-3.34968e-06
-4.44548e-06
-5.85259e-06
-7.80697e-06
-1.01308e-05
-1.28253e-05
-1.6096e-05
-2.01119e-05
-2.50406e-05
-3.09396e-05
-3.80448e-05
-4.63982e-05
-5.63767e-05
-6.80634e-05
-8.18141e-05
-9.8658e-05
-0.000118806
-0.00014326
-0.000172991
-0.000207588
-0.000246897
-0.000292971
-0.000346755
-0.000411226
-0.000484559
-0.000565071
-0.000656471
-0.000760146
-0.000880117
-0.00101817
-0.00117456
-0.00134835
-0.00153871
-0.00174731
-0.00198067
-0.00224165
-0.00253679
-0.00286852
-0.00323283
-0.0036276
-0.00404457
-0.00448057
-0.00494564
-0.00544735
-0.00596809
-0.00647707
-0.00696758
-0.00745473
-0.0079471
-0.00843804
-0.0089452
-0.0094865
-0.0101092
-0.0108249
-0.0116833
-0.012772
-0.0142163
-0.0162692
-0.0183005
-0.0199411
-0.0217544
-0.0236716
-0.0244471
-0.0241908
-0.0248344
-0.0270891
-0.0284294
-0.0297027
-0.0307725
-0.0317124
-0.0324892
-0.0331056
-0.0335125
-0.0336888
-0.0335907
-0.0331859
-0.0323825
-0.0312224
-0.0298257
-0.0282956
-0.0264265
-0.0239723
-0.0207009
-0.0167372
-0.0124827
-0.00838656
-0.00490233
-0.00231795
-0.000775597
-0.000128817
-2.18211e-06
-1.90719e-06
-0.000202245
-0.00179982
-0.00752782
-0.0210624
-0.0451482
-0.0794047
-0.120529
-0.163102
-0.202938
-0.236876
-0.265296
-0.286845
-0.30387
-0.315165
-0.324338
-0.329148
-0.33381
-0.334458
-0.336455
-0.334365
-0.334729
-0.330829
-0.330342
-0.32532
-0.32619
-0.788363
-0.801329
-0.797615
-0.792293
-0.788508
-0.783524
-0.778626
-0.770504
-0.759614
-0.739696
-0.713091
-0.662178
-0.595313
-0.47
-0.315287
-0.11433
-0.0327982
-0.000158995
-2.47818e-05
-0.0650598
-0.439183
-0.781313
-0.886536
-0.913614
-0.920966
-0.924386
-0.925983
-0.924881
-0.921524
-0.918253
-0.9151
-0.912631
-0.910449
-0.909152
-0.907259
-0.905736
-0.903444
-0.901758
-0.899099
-0.897148
-0.893685
-0.891019
-0.887253
-0.884137
-0.879627
-0.875451
-0.869636
-0.863656
-0.853697
-0.842971
-0.828529
-0.811176
-0.785325
-0.742596
-0.671594
-0.56823
-0.383196
-0.0928997
-0.00106725
-2.34228e-05
-0.000462729
-0.000577882
-0.00040641
-0.000280762
-0.000188721
-6.44434e-05
-1.95783e-05
-8.95354e-06
-6.71957e-06
-7.33553e-06
-8.87973e-06
-1.2803e-05
-1.89251e-05
-2.57171e-05
-3.34849e-05
-4.31943e-05
-5.72306e-05
-7.52978e-05
-0.000100002
-0.000129373
-0.000163622
-0.000205216
-0.000256242
-0.00031871
-0.000393509
-0.000483404
-0.000589269
-0.00071546
-0.000863513
-0.00103809
-0.00125056
-0.00150421
-0.0018101
-0.00217829
-0.00260517
-0.00309017
-0.00365488
-0.00431019
-0.00508448
-0.00595954
-0.00691848
-0.0079986
-0.00921582
-0.0106089
-0.0121927
-0.0139664
-0.0159157
-0.0180331
-0.0203329
-0.0228748
-0.0256817
-0.0288039
-0.0322504
-0.0359693
-0.0399252
-0.0440402
-0.0482785
-0.0527156
-0.0573773
-0.0621099
-0.0666662
-0.0710247
-0.0752833
-0.0795352
-0.0837315
-0.0880344
-0.0925673
-0.0976739
-0.103426
-0.11016
-0.118361
-0.128355
-0.142704
-0.15503
-0.165021
-0.175381
-0.18515
-0.189044
-0.188391
-0.191684
-0.202604
-0.2088
-0.214326
-0.218662
-0.222154
-0.224682
-0.226261
-0.226646
-0.225856
-0.22357
-0.219653
-0.213685
-0.205809
-0.196436
-0.185891
-0.173159
-0.157021
-0.136271
-0.111366
-0.0841186
-0.0570592
-0.0333725
-0.0155154
-0.00492832
-0.000706722
-5.21362e-06
-4.07895e-05
-0.0022454
-0.0169092
-0.0624815
-0.151121
-0.27117
-0.393772
-0.498134
-0.577106
-0.633988
-0.673462
-0.701642
-0.720698
-0.734445
-0.743115
-0.749758
-0.753267
-0.756465
-0.757097
-0.758458
-0.757339
-0.757617
-0.755364
-0.755084
-0.75208
-0.752637
-0.907368
-0.910882
-0.909782
-0.908143
-0.90699
-0.905459
-0.903935
-0.901387
-0.897931
-0.891538
-0.882857
-0.8656
-0.841372
-0.788157
-0.697812
-0.461907
-0.218248
-0.00317798
-0.000829995
-0.270464
-0.726242
-0.895156
-0.942619
-0.952151
-0.954212
-0.95469
-0.954644
-0.953686
-0.951672
-0.949872
-0.94832
-0.947184
-0.94624
-0.945736
-0.944968
-0.94437
-0.943434
-0.942793
-0.941805
-0.941149
-0.939869
-0.938941
-0.937589
-0.936536
-0.934945
-0.933529
-0.931494
-0.929535
-0.926039
-0.922337
-0.917345
-0.911651
-0.903379
-0.889676
-0.865855
-0.82883
-0.748859
-0.464661
-0.0347512
-4.39689e-08
-0.00147116
-0.00328973
-0.00271463
-0.00196117
-0.00132321
-0.000466681
-0.000153999
-7.51374e-05
-5.79941e-05
-6.42602e-05
-7.86019e-05
-0.00011292
-0.000165903
-0.000224422
-0.000291534
-0.000376339
-0.000497348
-0.000653227
-0.000862556
-0.001111
-0.00140183
-0.00175447
-0.00218557
-0.00271045
-0.00333722
-0.00408606
-0.00496591
-0.00600769
-0.00722614
-0.00865739
-0.0103775
-0.0124114
-0.0148285
-0.0176828
-0.020947
-0.0246139
-0.0288047
-0.0335736
-0.0390489
-0.0451019
-0.0516094
-0.0587551
-0.0666032
-0.0753079
-0.0848715
-0.0952125
-0.106173
-0.117674
-0.129723
-0.142517
-0.156058
-0.17042
-0.185489
-0.200925
-0.216491
-0.231885
-0.246961
-0.261929
-0.276722
-0.290902
-0.303878
-0.315805
-0.326925
-0.337586
-0.347712
-0.357772
-0.368004
-0.379085
-0.391065
-0.404476
-0.419818
-0.436468
-0.460661
-0.476486
-0.489431
-0.501686
-0.511018
-0.51363
-0.512726
-0.515749
-0.525765
-0.530328
-0.533755
-0.535615
-0.53625
-0.535548
-0.533454
-0.529663
-0.524356
-0.516726
-0.506712
-0.493624
-0.477397
-0.457975
-0.435059
-0.407068
-0.372089
-0.327941
-0.274481
-0.213242
-0.148326
-0.0878638
-0.0403313
-0.012023
-0.00141162
-2.16845e-06
-0.000314587
-0.00996272
-0.0617037
-0.189538
-0.370925
-0.541885
-0.667312
-0.75004
-0.802381
-0.835703
-0.856943
-0.871135
-0.880347
-0.886697
-0.890666
-0.893569
-0.89518
-0.89653
-0.896944
-0.897522
-0.89728
-0.89742
-0.896793
-0.896718
-0.895834
-0.896021
-0.940778
-0.942173
-0.941793
-0.941161
-0.940733
-0.940153
-0.939559
-0.938554
-0.937168
-0.934606
-0.931143
-0.924298
-0.915005
-0.89499
-0.860775
-0.753316
-0.567872
-0.0364
-0.012126
-0.503984
-0.827633
-0.921732
-0.961097
-0.964665
-0.965115
-0.964671
-0.964091
-0.963194
-0.961603
-0.960219
-0.959126
-0.958381
-0.957797
-0.957536
-0.95711
-0.956803
-0.956277
-0.955963
-0.955409
-0.955114
-0.954402
-0.953939
-0.953207
-0.952707
-0.951863
-0.951179
-0.950098
-0.949206
-0.947341
-0.945411
-0.942768
-0.940097
-0.936421
-0.930445
-0.920052
-0.904913
-0.875921
-0.759869
-0.27215
-0.000492148
-0.00196535
-0.012291
-0.0129167
-0.010039
-0.00689078
-0.00254203
-0.000929487
-0.000489934
-0.000390601
-0.000440098
-0.000543846
-0.000778082
-0.0011325
-0.00152383
-0.00197151
-0.00254196
-0.00334228
-0.00436924
-0.00571611
-0.00730299
-0.009156
-0.011383
-0.0140733
-0.0173
-0.0211006
-0.0255598
-0.0307155
-0.0366871
-0.0435324
-0.0513883
-0.0605176
-0.0709576
-0.0828643
-0.096267
-0.110922
-0.126661
-0.143716
-0.162049
-0.18173
-0.202175
-0.222864
-0.24414
-0.266009
-0.288587
-0.311599
-0.334672
-0.357343
-0.379486
-0.401095
-0.422458
-0.443482
-0.464165
-0.484275
-0.503365
-0.521245
-0.537761
-0.552913
-0.567029
-0.579998
-0.591582
-0.601495
-0.61018
-0.617827
-0.624836
-0.631205
-0.637399
-0.64357
-0.650171
-0.657203
-0.664991
-0.67367
-0.682594
-0.695998
-0.70102
-0.705827
-0.709792
-0.710373
-0.708133
-0.706354
-0.706552
-0.70772
-0.70642
-0.704228
-0.700982
-0.696729
-0.691333
-0.684639
-0.67649
-0.666727
-0.654621
-0.640059
-0.622278
-0.600959
-0.575336
-0.544169
-0.5059
-0.458923
-0.401564
-0.333985
-0.257296
-0.176114
-0.101172
-0.0438417
-0.0116434
-0.00100124
-8.58838e-09
-0.000977935
-0.0191237
-0.0989988
-0.267063
-0.470872
-0.639408
-0.752314
-0.822483
-0.86511
-0.89137
-0.907648
-0.918187
-0.924888
-0.929346
-0.93224
-0.934227
-0.93538
-0.936253
-0.936632
-0.937002
-0.937018
-0.937122
-0.936962
-0.936946
-0.936671
-0.936753
-0.952901
-0.95383
-0.953688
-0.953377
-0.953182
-0.952903
-0.952604
-0.952079
-0.951331
-0.949932
-0.94804
-0.944251
-0.939431
-0.929459
-0.91382
-0.86548
-0.781419
-0.201072
-0.0758949
-0.609876
-0.846548
-0.914432
-0.967777
-0.969359
-0.969271
-0.968425
-0.967585
-0.966722
-0.965328
-0.964062
-0.963111
-0.962498
-0.962034
-0.961869
-0.961581
-0.961406
-0.961043
-0.960877
-0.960478
-0.960338
-0.959836
-0.959562
-0.959052
-0.958781
-0.958211
-0.957834
-0.957096
-0.956662
-0.95544
-0.954219
-0.952456
-0.950725
-0.948494
-0.944983
-0.938693
-0.930075
-0.916966
-0.865298
-0.601837
-0.0272994
-0.000499046
-0.0279604
-0.0433589
-0.0382927
-0.0275399
-0.0109146
-0.00457701
-0.00266054
-0.00220625
-0.00253331
-0.00315801
-0.0044941
-0.00643025
-0.00858574
-0.0110102
-0.0140992
-0.0183139
-0.0236283
-0.0303277
-0.038024
-0.0468094
-0.0570446
-0.0689553
-0.0826347
-0.0980336
-0.115178
-0.133973
-0.154437
-0.176491
-0.200144
-0.225547
-0.252338
-0.280292
-0.308898
-0.337471
-0.365571
-0.393365
-0.420609
-0.447154
-0.472435
-0.496037
-0.518521
-0.540024
-0.560694
-0.580319
-0.598726
-0.61569
-0.631398
-0.645992
-0.659803
-0.672798
-0.685017
-0.696358
-0.70659
-0.715711
-0.723759
-0.730795
-0.737068
-0.74239
-0.746695
-0.749919
-0.752531
-0.754528
-0.75618
-0.757482
-0.758779
-0.760116
-0.761717
-0.763553
-0.765793
-0.768409
-0.77195
-0.775633
-0.773164
-0.772163
-0.77031
-0.764531
-0.758664
-0.755869
-0.75423
-0.748558
-0.742869
-0.736138
-0.728597
-0.719977
-0.710102
-0.69899
-0.686151
-0.671296
-0.65388
-0.633622
-0.609753
-0.581863
-0.548782
-0.508776
-0.460857
-0.40461
-0.34025
-0.269976
-0.196406
-0.125202
-0.065852
-0.0254002
-0.0055864
-0.000286334
-8.26583e-07
-0.00166567
-0.0215368
-0.0979684
-0.254775
-0.451972
-0.62473
-0.746177
-0.823835
-0.871581
-0.900984
-0.91908
-0.930623
-0.937883
-0.94274
-0.946141
-0.948301
-0.949555
-0.950422
-0.950866
-0.951219
-0.95134
-0.951446
-0.951447
-0.951451
-0.951377
-0.951427
-0.957607
-0.958455
-0.958418
-0.958249
-0.958158
-0.958013
-0.957843
-0.957527
-0.957058
-0.956153
-0.954941
-0.95243
-0.949235
-0.942396
-0.933048
-0.904968
-0.862818
-0.473938
-0.211967
-0.624886
-0.827512
-0.885636
-0.964332
-0.97079
-0.970766
-0.969725
-0.968719
-0.967845
-0.966555
-0.965232
-0.964235
-0.963605
-0.963125
-0.96298
-0.96273
-0.962617
-0.962301
-0.962208
-0.961866
-0.961824
-0.961422
-0.961256
-0.960838
-0.960705
-0.960258
-0.960074
-0.959485
-0.959345
-0.958491
-0.957693
-0.956403
-0.955148
-0.953647
-0.951561
-0.947083
-0.940659
-0.93392
-0.905972
-0.768207
-0.192401
-5.02323e-08
-0.0323128
-0.094067
-0.101928
-0.0806319
-0.0359915
-0.0183633
-0.0122048
-0.0106589
-0.0125009
-0.0156576
-0.0220234
-0.0304656
-0.0400353
-0.0502316
-0.0629125
-0.0792457
-0.0987725
-0.121495
-0.145845
-0.171779
-0.199704
-0.229481
-0.260606
-0.292444
-0.32448
-0.356311
-0.387568
-0.418158
-0.447922
-0.476842
-0.50455
-0.530824
-0.555276
-0.577811
-0.598469
-0.617623
-0.635242
-0.651331
-0.665917
-0.678956
-0.691014
-0.702257
-0.712812
-0.722543
-0.731428
-0.739347
-0.746569
-0.753182
-0.759428
-0.765201
-0.770506
-0.775256
-0.779252
-0.782533
-0.785165
-0.787155
-0.788693
-0.78947
-0.789466
-0.788663
-0.787633
-0.786203
-0.784611
-0.782801
-0.781122
-0.779516
-0.778126
-0.776844
-0.775748
-0.774632
-0.776952
-0.7722
-0.764411
-0.759088
-0.752516
-0.740518
-0.731401
-0.727596
-0.724592
-0.711617
-0.701675
-0.690058
-0.677788
-0.664168
-0.649327
-0.633023
-0.614453
-0.593721
-0.570153
-0.543513
-0.513194
-0.478955
-0.439726
-0.394064
-0.342272
-0.285639
-0.226314
-0.167717
-0.112712
-0.0654529
-0.0307689
-0.0101973
-0.00170859
-3.34951e-05
-1.8749e-05
-0.00219581
-0.0198961
-0.0811933
-0.209258
-0.386189
-0.560959
-0.697314
-0.791174
-0.851666
-0.889955
-0.913866
-0.929187
-0.938856
-0.945458
-0.950222
-0.95317
-0.954846
-0.955922
-0.956504
-0.956915
-0.95711
-0.957237
-0.957318
-0.957333
-0.957353
-0.957391
-0.958783
-0.959591
-0.9596
-0.95952
-0.95949
-0.959421
-0.959326
-0.959126
-0.958816
-0.958177
-0.957354
-0.955527
-0.95318
-0.947745
-0.940557
-0.920076
-0.893441
-0.655181
-0.349688
-0.604141
-0.785793
-0.846267
-0.941328
-0.970266
-0.971038
-0.97
-0.968911
-0.968008
-0.966872
-0.965411
-0.964254
-0.96351
-0.962917
-0.962736
-0.962462
-0.962377
-0.962042
-0.961986
-0.96163
-0.96165
-0.96127
-0.961165
-0.960746
-0.960699
-0.960268
-0.960223
-0.959646
-0.959715
-0.959062
-0.958539
-0.957481
-0.956582
-0.955575
-0.954655
-0.951698
-0.946421
-0.943038
-0.926719
-0.843573
-0.444761
-0.00268595
-0.0139857
-0.1209
-0.174375
-0.157469
-0.0840588
-0.0562564
-0.0449491
-0.0422086
-0.0505753
-0.0630823
-0.0858152
-0.111488
-0.140933
-0.168805
-0.200959
-0.238059
-0.277891
-0.318405
-0.356935
-0.393631
-0.429002
-0.462704
-0.494262
-0.523425
-0.550019
-0.574306
-0.596216
-0.616313
-0.634664
-0.651452
-0.666657
-0.68029
-0.692213
-0.702762
-0.712145
-0.72067
-0.728237
-0.7348
-0.740606
-0.74561
-0.750291
-0.75468
-0.758841
-0.762572
-0.765889
-0.76862
-0.771077
-0.773257
-0.775396
-0.777259
-0.778827
-0.780013
-0.78054
-0.780499
-0.77997
-0.778876
-0.777475
-0.775286
-0.772331
-0.768549
-0.764824
-0.760759
-0.75668
-0.752402
-0.748405
-0.744467
-0.740744
-0.736948
-0.73304
-0.729826
-0.731576
-0.716636
-0.703648
-0.693957
-0.682283
-0.662779
-0.65154
-0.646779
-0.642805
-0.620932
-0.606892
-0.590209
-0.573103
-0.555166
-0.535896
-0.51483
-0.491816
-0.466804
-0.439331
-0.409329
-0.376579
-0.34118
-0.302549
-0.26
-0.214926
-0.169406
-0.125861
-0.0868336
-0.0537713
-0.0283228
-0.0117355
-0.0032008
-0.000350451
-6.63975e-07
-9.29063e-05
-0.00271489
-0.0180096
-0.0657501
-0.165949
-0.315684
-0.481868
-0.62749
-0.737629
-0.813743
-0.864385
-0.897135
-0.91861
-0.93241
-0.941641
-0.948281
-0.952808
-0.955441
-0.957068
-0.957949
-0.958525
-0.958824
-0.959007
-0.959151
-0.959178
-0.959265
-0.959296
-0.958357
-0.959017
-0.959005
-0.958981
-0.958982
-0.958948
-0.95889
-0.958738
-0.958502
-0.957962
-0.957329
-0.955762
-0.953941
-0.949364
-0.943246
-0.925964
-0.905659
-0.741627
-0.45551
-0.578311
-0.732783
-0.796073
-0.876173
-0.967203
-0.970203
-0.969648
-0.968633
-0.967763
-0.967006
-0.965447
-0.964087
-0.963174
-0.962401
-0.962133
-0.961787
-0.96171
-0.961319
-0.961284
-0.960865
-0.960924
-0.960518
-0.960453
-0.959967
-0.959986
-0.959491
-0.959572
-0.958913
-0.959152
-0.95861
-0.958326
-0.957365
-0.956728
-0.955958
-0.955918
-0.954427
-0.950293
-0.949332
-0.94043
-0.885486
-0.632347
-0.0382801
-0.00104708
-0.0848851
-0.184331
-0.1984
-0.130249
-0.119315
-0.118711
-0.122643
-0.148589
-0.182192
-0.231173
-0.275442
-0.325386
-0.366244
-0.407721
-0.449699
-0.489954
-0.525669
-0.556095
-0.582543
-0.606151
-0.626926
-0.644963
-0.660577
-0.673867
-0.68545
-0.695213
-0.703962
-0.71161
-0.718321
-0.724031
-0.728745
-0.732287
-0.735155
-0.737507
-0.739592
-0.741142
-0.74202
-0.74266
-0.742835
-0.743127
-0.743407
-0.743762
-0.743874
-0.743828
-0.743429
-0.74295
-0.742398
-0.741907
-0.741173
-0.740178
-0.738688
-0.736444
-0.733723
-0.730533
-0.726959
-0.723077
-0.718365
-0.712785
-0.706528
-0.700389
-0.693909
-0.687658
-0.681147
-0.675144
-0.669105
-0.663324
-0.657188
-0.651599
-0.648324
-0.644383
-0.619702
-0.601717
-0.58788
-0.571299
-0.544235
-0.533689
-0.528107
-0.524105
-0.493495
-0.476937
-0.456652
-0.436787
-0.417396
-0.395849
-0.373419
-0.349707
-0.324739
-0.298334
-0.270587
-0.241655
-0.211822
-0.180921
-0.14879
-0.116958
-0.0870944
-0.0607403
-0.0390238
-0.0222003
-0.010484
-0.00370289
-0.000756355
-3.75226e-05
-6.30621e-07
-0.000272431
-0.00337237
-0.0169686
-0.0550478
-0.133498
-0.256375
-0.405708
-0.551104
-0.672213
-0.762783
-0.826887
-0.870383
-0.899961
-0.919547
-0.932639
-0.941443
-0.948127
-0.952455
-0.955274
-0.956835
-0.957805
-0.958308
-0.958631
-0.958851
-0.958906
-0.959052
-0.959082
-0.957478
-0.957721
-0.957619
-0.957637
-0.957649
-0.957621
-0.957573
-0.957424
-0.957211
-0.95666
-0.956104
-0.954534
-0.952994
-0.948695
-0.943675
-0.928067
-0.91066
-0.786016
-0.539704
-0.561277
-0.679975
-0.739394
-0.733974
-0.957338
-0.967003
-0.968492
-0.967842
-0.966961
-0.967038
-0.9656
-0.9641
-0.963017
-0.962035
-0.961636
-0.961176
-0.961092
-0.960624
-0.960604
-0.960098
-0.960183
-0.959733
-0.959717
-0.959128
-0.959217
-0.958606
-0.958835
-0.958038
-0.958441
-0.957956
-0.957958
-0.957031
-0.956653
-0.955908
-0.956536
-0.956258
-0.953246
-0.953881
-0.951276
-0.913333
-0.749158
-0.152679
-2.51928e-06
-0.0270545
-0.115475
-0.162118
-0.134805
-0.168053
-0.206996
-0.236255
-0.287009
-0.341119
-0.401088
-0.444436
-0.491586
-0.529589
-0.561725
-0.591323
-0.618121
-0.639399
-0.655948
-0.669318
-0.680751
-0.690043
-0.697357
-0.703088
-0.707232
-0.710518
-0.712538
-0.714313
-0.715426
-0.716081
-0.716011
-0.715226
-0.713452
-0.711412
-0.709152
-0.706979
-0.704465
-0.701349
-0.698439
-0.695117
-0.692587
-0.6899
-0.687444
-0.684683
-0.681937
-0.679127
-0.676259
-0.673729
-0.671142
-0.668178
-0.664906
-0.660609
-0.655623
-0.650291
-0.644359
-0.638673
-0.632462
-0.625689
-0.617722
-0.609915
-0.601938
-0.593966
-0.586087
-0.578165
-0.570543
-0.563211
-0.555983
-0.548566
-0.542639
-0.537288
-0.524757
-0.493415
-0.472224
-0.455702
-0.435917
-0.405002
-0.397431
-0.391987
-0.388423
-0.353072
-0.336675
-0.316039
-0.297692
-0.279475
-0.259806
-0.240093
-0.219937
-0.199397
-0.178495
-0.157356
-0.136278
-0.115488
-0.0949779
-0.0747422
-0.0558571
-0.0392537
-0.0256149
-0.0152049
-0.00781377
-0.00319281
-0.00088671
-0.000108773
-8.05981e-07
-2.28998e-05
-0.00062412
-0.00428484
-0.0168749
-0.048462
-0.111179
-0.211295
-0.340758
-0.478061
-0.602973
-0.70405
-0.780451
-0.835146
-0.873974
-0.900647
-0.91909
-0.931193
-0.940018
-0.946346
-0.950899
-0.953759
-0.955555
-0.956488
-0.957114
-0.957458
-0.957585
-0.9578
-0.957844
-0.956469
-0.956168
-0.955949
-0.955992
-0.956003
-0.955965
-0.955917
-0.955748
-0.955539
-0.954923
-0.954405
-0.95271
-0.95135
-0.946952
-0.943056
-0.928822
-0.912929
-0.813745
-0.611924
-0.557539
-0.636168
-0.684585
-0.576096
-0.923227
-0.959149
-0.965806
-0.966617
-0.965925
-0.967041
-0.965776
-0.964258
-0.96312
-0.96199
-0.96144
-0.960839
-0.960736
-0.960189
-0.960183
-0.959591
-0.959692
-0.959194
-0.959246
-0.95854
-0.958721
-0.957953
-0.958365
-0.957392
-0.957968
-0.957471
-0.957847
-0.956898
-0.956882
-0.955994
-0.957167
-0.957772
-0.955911
-0.956845
-0.959787
-0.934203
-0.823443
-0.341094
-0.00301018
-0.00245601
-0.038522
-0.0812804
-0.0986281
-0.165172
-0.247938
-0.3106
-0.382362
-0.443783
-0.4988
-0.531973
-0.564759
-0.5962
-0.619669
-0.637916
-0.654329
-0.665558
-0.672861
-0.677713
-0.68159
-0.683832
-0.684565
-0.684225
-0.682638
-0.680794
-0.677823
-0.675243
-0.672079
-0.668813
-0.664788
-0.660439
-0.655037
-0.649213
-0.643457
-0.638126
-0.632303
-0.626267
-0.620196
-0.614313
-0.609849
-0.60484
-0.600106
-0.594674
-0.58917
-0.583969
-0.578932
-0.57469
-0.57029
-0.565323
-0.559945
-0.553143
-0.546044
-0.538668
-0.530698
-0.523454
-0.515512
-0.50731
-0.497782
-0.489242
-0.480476
-0.472809
-0.464162
-0.456278
-0.447982
-0.440589
-0.432806
-0.425258
-0.417913
-0.408494
-0.39057
-0.35687
-0.335661
-0.319011
-0.298669
-0.270574
-0.266526
-0.262708
-0.25835
-0.225253
-0.211404
-0.194277
-0.180246
-0.165591
-0.150756
-0.136292
-0.121985
-0.107846
-0.0939786
-0.0804412
-0.0674936
-0.0552257
-0.0436497
-0.0327616
-0.0231493
-0.0152103
-0.00914735
-0.00489195
-0.00217328
-0.000706669
-0.000127924
-5.32525e-06
-2.882e-06
-0.000145125
-0.00124719
-0.00557758
-0.0176958
-0.0449865
-0.0965782
-0.178745
-0.289019
-0.413723
-0.536006
-0.642507
-0.72844
-0.793456
-0.841744
-0.876245
-0.900994
-0.917905
-0.929732
-0.938022
-0.944251
-0.948687
-0.951889
-0.953653
-0.954874
-0.95546
-0.955758
-0.956077
-0.956158
-0.95502
-0.954605
-0.954294
-0.954324
-0.954327
-0.954267
-0.954216
-0.954013
-0.953805
-0.953102
-0.952616
-0.950759
-0.949608
-0.945004
-0.942288
-0.929494
-0.914567
-0.834514
-0.675896
-0.566919
-0.605824
-0.638277
-0.504225
-0.843727
-0.937164
-0.959297
-0.964296
-0.964736
-0.966979
-0.966099
-0.964665
-0.963481
-0.962184
-0.961485
-0.960763
-0.960647
-0.96006
-0.960085
-0.959443
-0.959548
-0.959015
-0.959163
-0.958352
-0.958652
-0.957702
-0.958333
-0.957164
-0.957938
-0.957323
-0.958177
-0.957115
-0.957623
-0.956416
-0.958086
-0.959094
-0.958701
-0.958572
-0.965947
-0.950529
-0.874635
-0.536753
-0.0298369
-1.01536e-05
-0.00510534
-0.0233607
-0.0545018
-0.123044
-0.224591
-0.311376
-0.396645
-0.461015
-0.509736
-0.535749
-0.558283
-0.583258
-0.603732
-0.617468
-0.626728
-0.632667
-0.633652
-0.63372
-0.63319
-0.631242
-0.627949
-0.62367
-0.618563
-0.613237
-0.607294
-0.60166
-0.595786
-0.590052
-0.583099
-0.576503
-0.568866
-0.559965
-0.551612
-0.544125
-0.535393
-0.527775
-0.518239
-0.510779
-0.50437
-0.497482
-0.490825
-0.483213
-0.475402
-0.46833
-0.461907
-0.456351
-0.450508
-0.444128
-0.437174
-0.428899
-0.420554
-0.412096
-0.403479
-0.395725
-0.387283
-0.378534
-0.369009
-0.360933
-0.35281
-0.346313
-0.338318
-0.331491
-0.324127
-0.317397
-0.309884
-0.302256
-0.294026
-0.282544
-0.262293
-0.231468
-0.213412
-0.199207
-0.181208
-0.160986
-0.159534
-0.157943
-0.152228
-0.126948
-0.116864
-0.105363
-0.0958859
-0.0860628
-0.0766239
-0.0676435
-0.0590423
-0.0507853
-0.0429707
-0.0355942
-0.0288192
-0.0226442
-0.0170722
-0.0120839
-0.00793836
-0.00475512
-0.00253737
-0.00115184
-0.000399928
-8.52433e-05
-6.16451e-06
-1.19974e-06
-6.01316e-05
-0.00050722
-0.00229061
-0.00741593
-0.0194654
-0.0439419
-0.087678
-0.156123
-0.249579
-0.360075
-0.475133
-0.582101
-0.673964
-0.747426
-0.804548
-0.847037
-0.878576
-0.900955
-0.917179
-0.928248
-0.936367
-0.942016
-0.946735
-0.949675
-0.951913
-0.952979
-0.953647
-0.954137
-0.954307
-0.95324
-0.953153
-0.952817
-0.952799
-0.952788
-0.952699
-0.952644
-0.952401
-0.952199
-0.951415