/*--------------------------------*- C++ -*----------------------------------*\
| =========                 |                                                 |
| \\      /  F ield         | OpenFOAM: The Open Source CFD Toolbox           |
|  \\    /   O peration     | Version:  2212                                  |
|   \\  /    A nd           | Website:  www.openfoam.com                      |
|    \\/     M anipulation  |                                                 |
\*---------------------------------------------------------------------------*/
FoamFile
{
    version     2.0;
    format      ascii;
    arch        "LSB;label=32;scalar=64";
    class       volScalarField;
    location    "5000";
    object      theta3_Scaled_;
}
// * * * * * * * * * * * * * * * * * * * * * * * * * * * * * * * * * * * * * //

dimensions      [0 0 0 0 0 0 0];

internalField   nonuniform List<scalar> 
10368
(
-1.02682e-57
-6.20385e-25
-1.67294e-56
-6.20385e-25
-1.02241e-57
-3.75838e-54
-1.03398e-25
-3.10193e-25
4.01445e-57
0
-3.10193e-25
3.10193e-25
-2.64545e-54
4.1359e-25
2.06795e-25
5.16988e-26
3.87741e-26
3.06293e-48
-1.87445e-43
2.79294e-41
-2.78673e-41
-5.90762e-43
3.07462e-42
-5.07162e-55
-2.14564e-45
4.08084e-40
-6.47181e-47
2.0778e-42
-5.42681e-42
6.2878e-46
1.60249e-40
-4.80031e-42
8.24737e-46
3.55029e-57
1.57424e-45
4.90065e-41
9.37284e-46
-1.35667e-41
1.7821e-46
-1.15221e-41
-1.18177e-45
1.81732e-47
-1.12649e-45
2.5337e-44
-4.54151e-45
1.16754e-47
-2.16745e-43
-1.66505e-42
-8.51906e-43
-7.26414e-44
-1.00486e-41
-1.63318e-42
7.53333e-46
-2.11139e-44
1.89131e-46
8.15644e-45
3.26592e-44
5.05095e-47
-3.4343e-44
-8.21411e-45
-6.31789e-44
-5.11796e-44
-5.10168e-47
-2.1629e-44
1.31389e-45
2.96288e-44
-6.90177e-47
-6.79843e-47
2.38878e-45
5.00749e-45
-7.21689e-47
-6.04661e-45
2.12528e-44
-1.14306e-44
-3.05927e-47
3.53262e-46
-1.47238e-46
-6.80976e-44
1.48753e-44
-1.93243e-46
-5.85901e-44
4.55644e-46
-6.6427e-47
1.40478e-44
-6.20342e-46
2.96936e-46
-4.03131e-44
-3.03156e-46
4.89431e-44
5.40565e-44
3.21284e-44
1.0964e-43
-2.76024e-46
1.45235e-45
-5.97447e-47
-5.26507e-47
2.06668e-43
-1.79293e-44
-4.23281e-48
3.92393e-44
1.94314e-44
2.89318e-44
-1.44935e-43
8.47152e-44
4.93561e-47
-1.3988e-44
3.56754e-44
1.75757e-47
1.53342e-45
2.96129e-47
-4.33868e-44
1.27745e-46
4.38488e-44
-2.93577e-44
-1.01486e-43
2.90704e-46
-4.75138e-44
1.61369e-47
2.17947e-46
-3.44369e-44
-5.60778e-44
7.82166e-52
9.96471e-53
3.10367e-52
-1.25018e-43
2.68911e-47
5.521e-45
8.99756e-48
-5.78869e-45
1.85751e-47
4.43597e-46
-4.97187e-46
-2.14348e-46
2.08395e-47
-3.79797e-46
1.18954e-46
2.7231e-45
2.85737e-48
5.4151e-51
-1.55096e-25
-2.06795e-25
1.59317e-54
-2.06795e-25
5.3965e-52
3.10193e-25
3.10193e-25
-5.56379e-52
3.10193e-25
-3.10193e-25
6.71736e-55
-3.10193e-25
-3.10193e-25
-3.10193e-25
-2.94473e-51
-3.10193e-25
5.52888e-51
-1.40284e-51
-9.01045e-52
1.26514e-52
2.64508e-52
-8.01889e-54
0
2.58494e-26
5.16988e-26
-3.87741e-26
5.02299e-55
2.60639e-55
9.69352e-27
7.37239e-57
6.46235e-26
3.87741e-26
0
4.84676e-26
2.70355e-57
-2.24915e-54
-2.02531e-54
-1.74048e-54
-5.74198e-54
-1.16127e-54
-6.85987e-55
-1.26831e-54
-9.01774e-55
2.06795e-25
-2.6248e-63
-1.55096e-25
-2.06795e-25
-3.84446e-63
1.55096e-25
-6.15872e-63
-2.89913e-59
-5.16988e-26
5.16988e-26
-1.27055e-21
-4.28064e-57
1.27055e-21
-1.27055e-21
-1.27055e-21
-6.35275e-22
4.10873e-51
2.42878e-51
6.35275e-22
1.05879e-22
1.05821e-53
1.58819e-22
3.97047e-23
-3.01627e-50
-2.35804e-50
7.94093e-23
-3.58446e-49
4.11608e-48
-2.84272e-41
-4.38858e-38
-3.56855e-39
6.27798e-38
1.55354e-37
-1.14248e-43
-2.45495e-43
5.24329e-37
-1.43148e-45
-4.30451e-40
-5.07022e-40
2.53093e-43
2.03522e-37
1.3262e-37
-1.48297e-39
3.50078e-51
1.85548e-43
3.68935e-38
3.84848e-44
-2.35481e-39
1.52391e-44
9.07011e-41
-3.71224e-40
9.24532e-45
8.12965e-43
-3.55268e-40
4.3333e-42
2.76477e-44
7.85368e-41
5.59405e-40
-3.42883e-39
-5.50472e-40
-5.81223e-39
8.03742e-40
8.33963e-44
7.51649e-42
1.10789e-43
-9.23605e-40
-3.19058e-40
4.66989e-41
1.22739e-40
5.3845e-42
5.63156e-42
-8.47966e-41
-2.13406e-47
9.89782e-42
3.88315e-42
-1.4448e-42
2.58829e-42
-3.31713e-44
1.1366e-42
1.50789e-42
9.17875e-52
-1.08829e-42
-1.00023e-41
4.52022e-43
-1.41081e-44
5.29419e-44
-1.8128e-44
-2.13809e-41
-1.08588e-42
3.98417e-49
2.3367e-43
-6.85755e-42
-3.08595e-44
1.25774e-41
-1.34497e-43
-4.02845e-42
2.17267e-41
-3.68946e-44
4.63681e-43
-8.96865e-42
1.79938e-40
-9.78063e-42
-1.29042e-43
8.31413e-43
4.44593e-51
1.1718e-50
4.25425e-42
2.76969e-41
-9.19203e-45
2.46426e-42
5.20744e-43
2.65819e-43
-7.30689e-41
-4.92411e-41
5.38679e-45
1.31134e-41
1.11066e-41
1.83352e-41
1.91896e-42
9.22671e-43
-8.22237e-42
1.50613e-44
2.68094e-41
-2.06699e-41
1.69701e-40
-6.37222e-41
8.41753e-42
2.81183e-49
3.94201e-42
7.18516e-43
5.41553e-42
6.44751e-45
1.39651e-43
4.80679e-44
3.15245e-42
1.61763e-41
4.42841e-42
-3.69242e-49
-1.09652e-42
8.11121e-43
-1.2122e-43
-7.84637e-43
-7.28937e-44
-6.44325e-43
-2.45132e-44
5.06285e-43
-5.01914e-43
-1.90741e-45
-1.64825e-45
2.7297e-23
-2.7297e-23
-3.97047e-23
-4.18809e-48
6.61744e-23
-1.32333e-48
4.08032e-48
7.94093e-23
-7.94093e-23
2.64698e-23
7.94093e-23
-7.94093e-23
-7.94093e-23
7.94093e-23
4.73055e-49
-3.23157e-47
2.5709e-47
-1.58819e-22
1.32349e-22
-2.97418e-50
-7.94093e-23
2.51145e-51
2.72647e-54
-3.97047e-23
-1.53473e-52
-9.92617e-24
-5.58753e-53
-8.59798e-53
1.30024e-53
3.70801e-53
4.61548e-53
-1.32349e-22
1.79535e-55
-5.96e-53
-5.55689e-53
-3.17637e-22
-3.08037e-55
-2.02724e-55
-6.09696e-55
-5.80859e-55
-6.35275e-22
6.35275e-22
4.23516e-22
4.98153e-57
-7.4257e-57
-5.21949e-57
2.11758e-22
-1.34594e-56
2.35894e-54
-6.35275e-22
-4.23516e-22
-8.62464e-62
0
0
0
5.43009e-59
9.50485e-51
1.08632e-50
-5.94254e-53
-2.7624e-52
2.03288e-20
2.03288e-20
-3.17644e-51
2.03288e-20
1.01644e-20
-5.0822e-21
7.87857e-49
1.27055e-21
2.01938e-48
-3.14982e-48
4.42114e-47
-3.2417e-38
6.32386e-37
1.01559e-36
-4.9086e-36
-3.85909e-36
-2.98831e-42
-6.22458e-42
-2.75815e-35
-3.52372e-39
-6.54802e-47
-5.08861e-47
6.02306e-42
-5.81246e-36
-4.26218e-36
-2.97984e-36
1.99598e-38
4.48998e-47
6.94071e-39
1.91193e-42
6.30214e-38
2.09493e-42
-6.44036e-40
5.61939e-38
2.38322e-43
1.30222e-41
9.21028e-39
1.10713e-43
2.02884e-41
-2.27597e-38
-1.74632e-39
5.28733e-38
4.54611e-38
1.48175e-37
4.96686e-39
1.27468e-49
5.2065e-40
3.96945e-39
3.07294e-38
1.16816e-38
-1.91747e-39
9.04933e-42
1.29433e-40
-2.76234e-39
1.28995e-40
-3.10856e-42
-1.68446e-40
6.51384e-41
4.02358e-43
-6.19233e-42
2.53614e-51
-1.48952e-40
1.99868e-51
-2.92301e-43
-1.7307e-40
1.10738e-40
1.11797e-42
2.11338e-41
1.43187e-41
2.96069e-41
4.36082e-40
-9.16501e-41
-7.63682e-43
2.306e-43
3.73754e-41
4.13366e-41
3.7911e-41
8.87488e-49
4.44355e-41
3.62002e-43
1.64302e-51
7.6753e-40
-1.10618e-39
-4.04549e-39
2.03066e-39
-9.99916e-43
1.08586e-40
-1.94115e-48
-1.74517e-48
-9.37097e-40
6.57981e-43
-1.13046e-43
7.25482e-40
3.98615e-40
8.59874e-40
1.15913e-40
1.16766e-40
1.87225e-43
1.5368e-40
2.0315e-43
-1.65636e-39
-1.16018e-39
-1.36584e-39
2.28257e-41
6.1838e-43
5.75647e-43
4.75635e-39
-1.44194e-39
-5.71827e-39
-1.59796e-39
8.18026e-43
1.9962e-48
1.03229e-41
-1.73149e-39
1.02518e-42
-9.24174e-40
3.23146e-43
-6.23769e-40
-9.95182e-40
9.08811e-41
1.42935e-43
3.15902e-40
3.11728e-42
-5.53446e-42
1.28153e-43
-5.31474e-41
1.53709e-41
3.11665e-43
-4.05153e-42
-1.90079e-41
-2.04442e-41
-7.33724e-42
-3.60153e-45
-1.03232e-21
5.98893e-48
8.47033e-22
-2.5411e-21
-1.27055e-21
2.5411e-21
4.78759e-48
1.69407e-21
-2.96462e-21
2.70711e-48
2.5411e-21
8.72657e-47
-7.69492e-48
-2.5411e-21
-2.5411e-21
-4.02348e-45
-2.5411e-21
-2.33696e-47
-7.44389e-48
-8.78469e-50
-2.9371e-49
0
0
-3.05396e-50
-2.55954e-50
0
-1.13578e-51
-9.8912e-52
-1.69165e-52
-6.4002e-52
-2.5411e-21
1.724e-51
-1.87353e-53
-2.39661e-53
0
-2.03288e-20
2.03288e-20
1.35525e-20
-2.03288e-20
2.03288e-20
-4.21719e-54
1.40161e-50
2.03288e-20
-2.03288e-20
2.03288e-20
-9.76915e-56
5.51791e-53
2.03288e-20
-6.19462e-53
-4.52627e-63
0
0
1.30309e-54
1.52768e-54
8.78911e-53
3.77494e-52
9.05975e-53
-3.25261e-19
-3.25261e-19
-1.6263e-19
5.42101e-20
9.74789e-48
9.30625e-47
1.51835e-47
1.35525e-20
-3.2124e-49
-1.78174e-47
5.3872e-47
1.45798e-45
2.41048e-41
-4.44966e-37
-6.03649e-36
9.65216e-36
-5.93674e-37
2.88116e-38
-2.35908e-46
-4.3116e-41
9.74805e-35
-1.21407e-34
6.15418e-37
4.11931e-46
4.10118e-37
-3.10149e-35
3.47719e-36
-1.19472e-35
-1.09694e-35
2.68501e-41
1.7838e-48
1.35876e-41
4.08855e-36
4.01027e-41
1.2138e-37
-6.80435e-37
1.83197e-42
3.03577e-18
1.89468e-39
4.95553e-42
5.17938e-38
-1.33324e-37
8.06341e-39
1.1193e-38
-2.03982e-39
1.33574e-36
3.08149e-38
3.07778e-41
-6.31563e-37
-5.90801e-37
1.43551e-37
-4.72648e-40
1.06205e-37
1.059e-37
1.64588e-38
1.87381e-39
7.74356e-39
-3.72678e-41
-1.04048e-38
-3.3561e-39
1.17539e-41
-9.80809e-39
-3.5012e-42
-1.62544e-39
-1.32449e-41
-8.1389e-40
1.45575e-39
-9.0886e-40
-1.12975e-39
-2.20932e-39
-5.14252e-40
-5.56634e-39
7.25524e-39
-7.63559e-39
-9.51087e-42
-9.27798e-39
2.66393e-39
-2.37303e-38
-4.36871e-39
7.39509e-49
-5.55235e-39
-1.29953e-38
-4.12603e-45
-8.87645e-40
-2.33875e-38
-4.45056e-38
4.90609e-38
2.48027e-38
-2.79155e-38
-1.13216e-41
-1.02421e-41
-4.06289e-38
-5.14973e-38
-1.78247e-42
-2.38951e-38
-8.83907e-39
-1.0014e-38
3.65913e-38
5.3899e-39
2.16762e-42
-3.99745e-38
1.33252e-41
2.53764e-38
1.69197e-39
8.20587e-39
2.98795e-38
6.75745e-42
-1.13026e-46
-4.79169e-40
1.34924e-38
9.00522e-38
3.19663e-38
1.16162e-41
2.43165e-42
-9.14038e-39
1.17164e-38
-4.22384e-39
1.00918e-38
6.51904e-39
-4.03009e-38
5.75439e-40
5.15556e-42
9.50793e-47
-1.99149e-39
-7.63736e-40
-8.63469e-40
1.16554e-41
7.17259e-41
-3.30444e-41
2.77384e-40
-1.50648e-40
2.79381e-41
2.05104e-40
1.587e-40
-7.15145e-44
1.01644e-20
1.01644e-20
-3.38813e-21
-9.12453e-46
5.50571e-21
-3.31332e-45
5.39984e-21
-2.5411e-21
0
2.5411e-21
9.29051e-47
-6.43431e-46
3.86998e-46
-2.43598e-44
5.0822e-21
3.2133e-44
5.0822e-21
6.77626e-21
1.01644e-20
2.87563e-48
-1.24719e-46
3.68333e-51
5.1554e-52
-1.22102e-47
-6.35926e-48
5.49591e-53
0
0
-9.11978e-51
3.89875e-48
-7.56775e-50
-1.96669e-52
-2.47538e-53
4.40457e-20
3.18271e-52
5.42101e-20
0
0
1.0842e-19
3.64614e-49
1.6263e-19
1.623e-52
-2.47266e-49
1.6263e-19
1.6263e-19
-4.10919e-51
-1.6263e-19
-2.1684e-19
1.17025e-56
-1.6263e-19
1.05833e-60
8.89907e-61
-3.46945e-18
2.88923e-50
-3.07925e-49
2.60209e-18
-2.71163e-48
4.64465e-48
1.77489e-47
2.60209e-18
2.60209e-18
-1.60819e-46
-7.10807e-46
1.30104e-18
-3.02067e-47
-9.72333e-48
2.33066e-46
-3.54281e-46
-5.63858e-45
4.19825e-40
-1.74531e-35
-3.2284e-35
-2.11018e-35
-2.63788e-39
3.31497e-34
-8.33157e-41
2.16185e-45
-3.57077e-37
4.84723e-34
-1.00693e-34
2.84343e-40
-1.11978e-34
-1.77614e-34
-4.70449e-37
6.69106e-35
4.72646e-35
8.37491e-41
3.76572e-51
3.03042e-47
8.51725e-38
2.36662e-46
-1.0374e-36
1.31998e-36
-3.77122e-39
1.73472e-18
2.71005e-45
2.86151e-39
-4.26601e-37
2.1654e-37
-1.96024e-36
1.14053e-37
-2.37832e-36
2.30339e-37
-2.77101e-36
4.7519e-40
9.28933e-37
3.79539e-36
-2.15107e-36
-1.79844e-36
5.70958e-37
5.14156e-39
7.65084e-39
-4.26569e-38
-6.95751e-41
-6.97969e-41
5.87306e-38
1.43762e-40
1.04022e-40
3.43229e-39
-2.607e-41
8.4432e-39
-1.2892e-38
-7.75503e-39
-5.321e-39
0
-8.46526e-39
6.86371e-38
3.38444e-39
4.03217e-39
-1.07622e-39
7.82078e-38
2.81585e-38
2.13617e-37
-1.34364e-38
-1.38786e-37
-1.37323e-37
-1.09147e-44
-1.31757e-37
4.82588e-38
-2.71632e-44
-1.86647e-39
4.93252e-37
4.92639e-37
1.80529e-37
-1.16309e-37
3.01925e-37
1.11138e-37
-7.27992e-41
1.04413e-38
6.67048e-38
-1.13273e-40
5.58463e-38
-1.60942e-37
1.74749e-39
-2.66074e-39
6.1403e-47
8.23131e-38
-2.48535e-37
1.10342e-40
2.00034e-41
3.36166e-39
3.43443e-39
3.49004e-39
2.34249e-46
5.60472e-41
2.83962e-38
-9.33292e-38
3.65214e-37
-6.48631e-37
7.33826e-41
1.44631e-38
5.16183e-39
8.59529e-40
9.97639e-39
5.8957e-40
-5.97626e-38
3.79286e-37
1.32607e-38
6.98876e-39
1.02862e-41
2.43579e-39
4.8462e-39
4.8152e-40
1.81154e-39
3.71386e-39
1.89633e-42
6.93575e-42
2.15574e-39
4.06897e-39
-5.62019e-42
-4.85092e-40
5.3784e-43
-3.05308e-44
3.25261e-19
-2.56331e-45
-3.25261e-19
1.52032e-44
3.25261e-19
2.1684e-19
3.25261e-19
-3.25261e-19
2.71051e-19
-8.55938e-45
1.701e-46
-1.6263e-19
1.6263e-19
1.6263e-19
3.92372e-44
-1.6263e-19
-1.31958e-43
6.93275e-45
-7.45389e-20
-1.35525e-20
2.13486e-50
2.94951e-51
9.27882e-47
4.45175e-47
2.46538e-52
0
-1.57326e-53
1.79346e-48
-7.61198e-48
-1.96549e-50
5.93157e-52
6.50521e-19
4.01664e-48
3.68937e-47
1.30104e-18
7.53781e-51
0
0
3.59307e-51
-3.46945e-18
3.21043e-48
2.5467e-48
-3.46945e-18
2.60209e-18
-1.28308e-55
9.30252e-54
1.69617e-50
-3.46945e-18
1.53102e-57
-2.60209e-18
-3.46945e-18
-6.52282e-54
1.0842e-18
7.63392e-49
1.30104e-18
1.30104e-18
-3.49081e-47
-4.33681e-19
8.67362e-19
3.46945e-18
8.78132e-46
8.67362e-19
-1.01452e-45
-5.20417e-18
4.46415e-47
1.00911e-46
-9.8464e-46
1.18274e-44
2.40641e-39
-6.78102e-35
1.34736e-34
-3.81014e-35
-1.72411e-39
-3.96187e-34
-4.81227e-37
-1.9742e-36
-1.15809e-33
-1.42872e-36
1.09633e-34
5.49878e-40
5.47406e-34
6.62323e-34
-1.43096e-36
2.94643e-34
-2.08902e-36
2.79072e-45
-5.95046e-37
6.12483e-45
-3.724e-47
2.84697e-45
-1.24821e-36
-4.19267e-38
9.36534e-38
3.30789e-40
7.16196e-42
-7.45606e-37
-1.21887e-36
6.74184e-38
6.68249e-36
-4.56275e-36
8.22717e-36
-2.20986e-37
1.61414e-35
4.43838e-37
4.63767e-36
1.14557e-36
1.73788e-35
9.74117e-36
7.16792e-40
5.08779e-36
1.74654e-38
-2.61237e-39
-4.55498e-37
-4.21005e-40
4.68314e-38
-2.38697e-37
-2.27893e-37
4.8656e-38
-1.70057e-40
-3.7008e-38
-7.68383e-38
-2.78277e-38
1.35918e-38
1.88409e-38
-1.44369e-38
-4.02631e-37
1.5655e-37
3.32827e-37
-1.68857e-39
2.96331e-37
2.34664e-38
-1.7698e-37
5.05665e-37
9.65201e-37
8.26642e-37
-1.95046e-43
1.11251e-36
-3.7104e-37
1.82489e-46
1.84175e-37
-1.13862e-36
2.86541e-36
-1.02108e-36
2.27951e-36
9.57259e-37
-1.24497e-36
-1.9266e-39
2.16093e-36
2.16772e-36
-2.27236e-40
-1.33744e-37
1.43244e-36
3.37706e-37
-7.35732e-37
-3.44512e-37
-3.2179e-37
2.02957e-36
-5.69709e-37
-7.77597e-37
1.89785e-40
3.0364e-38
9.75743e-44
1.03303e-45
-5.11684e-45
-3.43802e-37
3.53777e-38
-3.11891e-37
1.31913e-36
7.48458e-41
-2.56903e-37
-3.37229e-37
-4.81752e-38
-1.49369e-37
8.89221e-41
4.02123e-37
-1.25912e-37
4.47884e-37
-6.33875e-38
-1.04345e-38
-3.83405e-39
-4.34649e-38
-2.0237e-38
1.9487e-39
8.80235e-40
3.27348e-42
-6.06725e-39
-2.89672e-39
-1.34317e-38
1.21157e-39
-1.26621e-39
1.30104e-18
3.61804e-44
-1.30104e-18
-8.67362e-19
1.30104e-18
1.30104e-18
1.12478e-45
1.0842e-18
6.66459e-44
6.50521e-19
6.42567e-46
5.42101e-19
3.25261e-19
-2.4993e-45
-2.43945e-19
-3.47313e-45
-5.42101e-20
4.50216e-42
6.04047e-43
-9.6031e-45
-4.36456e-47
7.71065e-46
-1.12772e-46
0
-1.66328e-47
-5.79418e-47
-3.9369e-47
-3.67015e-49
-2.90389e-48
-9.03615e-51
-6.00252e-51
9.62073e-48
-5.42101e-19
6.50521e-19
-6.46809e-47
4.33681e-19
-2.43656e-46
-1.00365e-46
1.73472e-18
6.26135e-51
-2.60209e-18
-2.60209e-18
3.46945e-18
2.58079e-48
-2.61329e-48
-1.52734e-53
-1.19387e-48
-2.60209e-18
-2.60209e-18
2.60209e-18
-3.57401e-51
2.60209e-18
1.78729e-57
-1.43822e-52
-6.85139e-52
1.04083e-17
-2.10876e-47
2.76193e-47
-6.93889e-18
-5.63034e-50
-1.58286e-46
8.67362e-18
1.04083e-17
-8.67362e-18
1.30104e-18
-9.51371e-45
5.35162e-47
9.64495e-47
2.2354e-45
-4.00966e-43
1.53981e-38
-1.13651e-34
-6.04159e-34
-1.96894e-38
-2.39694e-35
-1.85513e-33
3.3468e-35
-5.92083e-34
1.32065e-33
-1.12199e-41
5.57519e-34
-2.69706e-37
-8.83908e-34
-4.67663e-36
-3.55551e-34
2.10774e-34
2.12044e-40
3.26742e-40
-2.63048e-34
3.92692e-40
-1.26426e-37
5.9579e-41
1.8734e-36
-5.67668e-38
-4.40786e-37
-3.62454e-39
1.60026e-41
2.10907e-36
3.86747e-36
-1.34714e-35
2.23189e-37
1.28519e-35
-9.63185e-38
-9.2524e-36
-2.87193e-35
-2.4839e-35
3.47501e-35
3.19489e-37
-3.24775e-35
4.52454e-36
2.29179e-39
6.69783e-36
2.68792e-36
1.42237e-37
9.8592e-37
2.0526e-37
-7.40903e-39
-1.24015e-36
1.9745e-37
4.50631e-37
3.17178e-38
-8.97586e-40
2.08036e-37
-1.31602e-37
6.57391e-37
-7.39923e-37
9.68542e-38
-1.36165e-36
-7.21594e-39
4.07803e-37
-2.25973e-39
2.7886e-38
2.13424e-38
1.2668e-36
2.95741e-36
2.26303e-36
9.95869e-37
-3.72012e-39
-2.76871e-36
-1.18857e-36
-3.63893e-44
-1.52008e-36
4.10466e-37
-1.88468e-35
2.10539e-38
-1.1334e-35
3.33996e-43
5.76446e-36
-1.76192e-36
4.24191e-37
4.61729e-37
1.05652e-46
7.35236e-37
-5.26081e-36
-2.92417e-37
3.57858e-36
-3.19529e-36
1.26512e-36
6.04993e-36
-7.37765e-36
2.48715e-36
-1.81057e-43
-2.6647e-36
8.21937e-37
-1.55349e-44
1.22619e-39
3.65876e-37
-4.19176e-36
4.93041e-37
-5.84546e-37
2.84248e-40
8.06131e-37
1.04875e-36
-2.9052e-36
-1.20325e-36
1.5704e-39
1.6734e-39
-2.51551e-37
1.1612e-37
9.15633e-38
-2.36779e-37
3.68492e-41
6.47518e-38
9.00425e-38
2.57298e-40
-1.34955e-38
9.30813e-41
6.96966e-39
-1.92877e-38
1.09985e-38
-3.88338e-39
3.82255e-39
1.48301e-41
1.14901e-42
6.50521e-19
3.25261e-19
1.68759e-44
-3.25261e-19
-6.50521e-19
-6.50521e-19
-1.62416e-43
-5.32273e-45
5.50112e-44
1.30104e-18
3.5234e-45
5.71861e-45
1.30104e-18
-8.58255e-46
2.1684e-18
-7.84209e-42
5.28647e-44
1.30104e-18
2.88897e-44
-1.04159e-44
1.63153e-45
2.00443e-49
1.918e-50
-2.09224e-46
-1.51604e-47
-1.11649e-46
-1.40077e-46
-2.48521e-46
-2.73233e-46
-1.86404e-47
-1.90192e-47
-3.46945e-18
1.73472e-18
-1.73472e-18
9.84851e-46
5.54902e-46
5.20417e-18
-2.02557e-46
1.16304e-46
4.94616e-52
-1.38599e-47
-5.70412e-47
-2.78187e-53
1.04083e-17
-1.04083e-17
-6.93889e-18
1.04083e-17
-1.04083e-17
-1.04083e-17
1.04083e-17
6.44801e-53
-3.49428e-50
-1.04083e-17
-6.93889e-18
9.064e-47
1.04083e-17
-1.04083e-17
1.04083e-17
-8.67362e-18
1.04083e-17
-1.24933e-44
-8.67362e-18
-8.67362e-18
8.67362e-18
2.60209e-18
1.07532e-44
1.32455e-44
1.12658e-42
3.85071e-42
-3.8441e-34
-4.03712e-33
-1.67198e-38
1.52864e-33
-1.15006e-35
-6.46468e-35
1.41496e-33
3.71684e-33
3.61133e-36
-1.05401e-34
-4.23006e-34
7.70335e-34
9.43094e-35
3.18173e-34
2.52112e-34
2.8858e-40
-1.51307e-36
2.95721e-34
3.86801e-39
-1.06628e-34
2.35149e-40
-9.83232e-39
-4.10774e-36
-1.70941e-36
1.30104e-18
4.99424e-44
4.58332e-39
-3.85954e-36
1.54215e-35
6.0507e-40
6.4511e-38
2.4053e-37
2.30406e-35
1.00084e-35
3.11674e-35
-2.64234e-35
-1.67646e-35
5.54433e-35
-1.72105e-35
2.88886e-38
3.38597e-35
1.15363e-35
2.87387e-36
2.78826e-36
-4.23783e-36
-6.95782e-38
4.41668e-36
2.007e-36
-1.73413e-36
-1.23676e-36
-4.18027e-39
6.14954e-38
-5.26179e-39
6.14548e-37
5.64882e-38
1.19311e-38
7.2187e-36
-8.14659e-39
-2.07184e-36
-1.6809e-42
1.62136e-36
-1.02248e-35
-2.94871e-36
-2.24019e-36
7.57355e-36
-1.53675e-38
8.05596e-37
8.45714e-36
9.59819e-37
9.13768e-43
1.20475e-35
-6.03133e-36
7.96802e-36
-1.67008e-35
2.63341e-36
-1.2214e-38
-4.99278e-36
-1.43445e-35
8.14661e-36
1.64715e-36
-8.36719e-40
-1.62748e-36
6.25479e-36
-5.46725e-36
-7.66068e-36
5.92762e-36
-1.7429e-36
-5.15649e-36
-4.92731e-36
-3.39149e-36
1.69653e-39
1.20655e-35
-4.7981e-36
2.5629e-39
8.39758e-43
-1.349e-36
1.87648e-35
-5.84982e-36
-5.38612e-44
-3.60745e-44
-3.31917e-37
2.66147e-36
3.6394e-36
2.71554e-36
3.97672e-39
-1.21965e-36
-6.18746e-36
5.56945e-39
3.11859e-37
8.09073e-37
2.53282e-40
-1.49518e-38
2.41519e-37
5.86847e-41
7.14949e-38
-3.76109e-39
4.68618e-38
8.37196e-38
2.76185e-38
3.82519e-39
-5.20417e-18
-3.14419e-18
-1.28397e-42
-2.1684e-18
-9.41516e-43
4.75021e-46
2.60209e-18
-2.60209e-18
1.41157e-43
-3.0038e-44
-2.60209e-18
-5.63718e-44
-6.51246e-43
5.98867e-47
-2.60209e-18
7.07262e-42
-2.60209e-18
3.05745e-41
1.11338e-43
-2.28126e-46
2.92637e-45
-1.76944e-43
-7.76523e-45
-3.35317e-45
-4.38489e-46
-3.50598e-46
2.99358e-46
-7.29578e-46
-7.25631e-47
8.23969e-46
2.33958e-45
1.05531e-45
-1.2026e-49
-8.62858e-50
-1.85356e-49
-5.20417e-18
-8.34286e-49
-1.04083e-17
-1.87664e-45
-2.85538e-46
-8.2634e-46
-2.49827e-46
-3.37465e-46
2.00885e-48
4.35502e-47
-3.46945e-18
1.04083e-17
-6.93889e-18
-1.04083e-17
4.1525e-52
6.93889e-18
1.04083e-17
-5.56002e-55
-8.47805e-57
-8.39748e-54
5.17301e-51
1.26873e-47
-1.26932e-46
2.60209e-18
2.99027e-46
-2.60209e-18
2.60209e-18
5.88226e-46
2.5689e-45
-4.63114e-45
5.64728e-48
-1.73472e-18
-4.33681e-18
1.04083e-17
-1.29164e-44
5.99606e-42
9.74262e-39
-4.06284e-36
2.32589e-34
-1.61072e-34
-4.7064e-33
-2.5646e-34
7.30004e-35
-2.62002e-36
5.3284e-36
-1.90302e-33
1.01064e-34
9.23751e-34
4.01431e-36
-1.14273e-34
4.19555e-34
-3.08602e-35
5.24783e-40
-1.8761e-34
6.85057e-34
3.75455e-39
1.10416e-34
2.27247e-39
4.06042e-36
9.19845e-36
4.83821e-36
-2.60209e-18
7.02116e-44
1.4185e-40
1.87923e-36
2.39058e-35
1.92713e-40
2.73892e-37
3.23223e-36
2.07766e-37
1.40055e-35
7.3266e-35
-3.54732e-36
4.32171e-35
-8.40619e-35
1.61079e-35
3.34891e-39
5.22915e-35
6.69101e-36
-1.14237e-39
-3.00111e-36
2.20174e-35
-1.02674e-37
-5.47336e-38
1.55807e-36
-4.19596e-37
3.22763e-37
-1.75239e-38
3.51715e-37
-2.21185e-38
-8.91887e-36
3.66393e-37
-2.47379e-36
1.1747e-35
1.42813e-36
1.02548e-35
8.5418e-36
-5.08429e-36
6.25451e-36
-1.82296e-35
-5.40231e-38
1.38559e-35
-5.69322e-38
-2.55757e-35
5.31005e-36
-2.62953e-35
-5.3707e-38
4.20428e-35
-3.40429e-35
5.47808e-35
3.09218e-35
-2.01516e-35
-3.47644e-38
-1.02129e-35
7.54409e-35
-3.08487e-35
-2.11647e-35
-2.3207e-38
2.04864e-35
3.39881e-35
-1.0044e-35
-5.19954e-36
-2.88528e-36
-7.11018e-36
-3.40396e-35
4.92597e-35
1.66706e-38
1.04225e-43
4.03938e-36
3.17756e-35
4.12426e-39
2.20453e-37
6.98448e-39
-2.18639e-35
-1.29967e-35
1.83112e-38
3.85997e-43
8.1208e-40
2.27092e-36
1.19745e-35
-3.01061e-37
6.05144e-39
1.7623e-36
1.56264e-35
6.7487e-37
1.15895e-36
4.45518e-38
2.6007e-39
7.93623e-41
2.9923e-37
3.59807e-39
-9.92421e-38
-2.72358e-38
-1.39499e-38
-4.86567e-39
3.24323e-38
-7.09165e-39
3.2922e-38
-1.30104e-18
9.73985e-44
-6.50521e-19
2.84626e-42
5.66686e-46
-3.25261e-19
0
-2.22825e-44
-1.13227e-43
-1.16213e-42
-9.36825e-43
1.98756e-44
-5.34944e-45
-1.91401e-45
-2.62053e-44
7.65107e-42
-7.46017e-42
3.02651e-42
-1.18436e-44
1.44903e-43
3.34314e-43
-2.09253e-43
-3.20527e-44
3.17503e-45
7.36591e-45
-1.00647e-47
-1.84365e-46
-5.31841e-47
-2.10871e-45
-8.18617e-46
-7.4408e-48
1.61649e-46
4.02652e-49
-1.63747e-46
-5.27035e-46
-3.26531e-45
-3.36827e-46
1.75684e-45
-6.93889e-18
2.20463e-45
-1.1695e-47
4.87891e-19
4.87891e-19
-2.98156e-19
-5.91718e-47
-6.50521e-19
-1.12486e-55
-6.50521e-19
-4.7961e-49
4.33681e-19
6.99853e-49
-5.17295e-59
-6.50521e-19
2.1684e-18
1.92936e-51
2.10869e-50
1.36256e-49
1.97264e-49
1.05749e-48
3.28276e-49
1.52509e-48
-5.28697e-45
1.45699e-44
9.95072e-48
0
-5.61684e-47
8.99182e-44
4.23631e-43
-5.67098e-44
-8.11541e-42
-2.99391e-41
-2.03169e-34
5.0898e-34
4.33236e-33
-2.99389e-34
1.10575e-34
-1.64086e-36
-1.80188e-39
-1.92699e-33
4.01032e-33
-1.25231e-36
1.03128e-36
1.01636e-39
1.39927e-34
2.10793e-33
3.90585e-35
9.92599e-42
3.96186e-34
-1.38195e-36
4.62517e-37
1.60764e-34
4.06967e-40
-4.01524e-36
1.23238e-39
6.18569e-39
-1.30104e-18
9.4775e-44
3.66038e-45
2.33758e-37
2.40993e-35
1.31701e-39
-3.44724e-35
-2.49061e-36
4.99731e-37
4.00209e-35
5.98194e-37
5.20315e-36
4.65637e-36
5.13541e-35
5.56945e-35
4.09832e-39
1.73389e-35
5.76891e-36
7.1213e-36
2.92257e-35
-3.13313e-35
-1.72778e-39
3.06438e-36
2.21352e-36
-1.32022e-36
1.29115e-36
-7.64416e-37
-6.52742e-36
3.11836e-36
2.95594e-36
2.05459e-35
1.08592e-35
6.02996e-35
-1.16547e-36
5.93586e-36
-1.77225e-35
-1.58259e-37
-1.50175e-35
4.85846e-35
-1.54131e-37
-1.07033e-34
-1.81758e-37
2.59383e-35
-1.01768e-35
2.12097e-34
8.01015e-35
6.10606e-36
1.27197e-34
8.53708e-36
-7.36666e-36
-2.67644e-35
-6.04867e-37
-4.85865e-35
7.27495e-36
1.43402e-34
7.73778e-35
-4.78049e-39
-3.53691e-35
-1.16637e-35
-3.26128e-36
1.71847e-39
2.90502e-39
1.70971e-35
4.14434e-35
2.47395e-35
4.43425e-39
6.32325e-44
7.39453e-39
-3.86018e-35
4.99142e-42
-1.25593e-35
5.80032e-39
3.87804e-36
5.61348e-35
6.10439e-39
3.2375e-42
1.98912e-39
6.87016e-36
2.08148e-36
8.18099e-36
1.37085e-38
3.04826e-36
1.4136e-35
-5.10826e-36
1.46058e-37
1.38431e-37
-6.11679e-37
6.10817e-40
1.88971e-38
-3.61827e-38
4.02838e-38
6.79809e-38
-2.85948e-38
-3.24037e-38
3.57308e-38
-1.21528e-41
-1.56967e-39
2.19995e-42
-1.25265e-42
7.58571e-42
-2.33458e-43
6.95185e-44
4.82606e-44
1.40607e-43
5.42101e-19
-4.47233e-19
8.13152e-19
-7.58942e-19
4.95137e-42
-6.50521e-19
1.1627e-43
1.31903e-41
-6.37813e-41
-1.02984e-42
-6.42361e-42
9.87571e-43
-3.98314e-43
-1.07804e-43
6.64442e-43
7.27164e-44
-2.90102e-45
-6.23372e-45
-1.91679e-45
-3.33419e-50
-2.65328e-46
-2.66876e-47
-3.04394e-46
0
-1.47588e-49
-2.83755e-49
-4.81481e-49
-8.5131e-49
4.97555e-45
2.60209e-18
-7.2999e-49
2.1684e-18
-7.74859e-50
-4.64832e-50
-1.95156e-18
-7.63668e-46
2.60209e-18
8.8139e-51
2.65034e-51
1.2809e-51
2.49491e-52
-2.60209e-18
-1.73472e-18
-2.60209e-18
-8.61445e-59
2.60209e-18
-2.93666e-49
-7.49179e-48
-1.30104e-18
-1.30104e-18
-1.00579e-46
-4.97448e-46
-6.67957e-46
-8.87779e-46
4.32654e-48
4.77767e-48
0
3.20778e-47
-2.61237e-43
-4.43196e-43
-6.08874e-43
-5.785e-43
1.19089e-41
6.15219e-39
4.13807e-36
-1.46017e-33
-6.73835e-33
-1.42913e-34
-1.36537e-34
-4.24908e-34
-1.92615e-39
4.11336e-33
1.31098e-35
1.67981e-34
9.35993e-40
-9.07062e-46
1.13936e-36
-3.21755e-33
5.46141e-36
7.06605e-49
2.36291e-37
-6.69918e-37
-7.59995e-35
-4.9378e-35
1.22694e-40
5.35739e-36
1.62449e-36
6.0094e-41
5.66678e-39
1.25996e-43
1.33581e-43
2.44541e-42
-2.16844e-36
-3.67845e-37
3.18296e-35
4.11639e-36
4.8665e-36
1.07993e-36
9.29043e-43
3.8183e-36
2.77325e-39
1.56674e-34
-1.86187e-36
1.76958e-36
-3.40956e-35
4.90549e-36
1.15343e-35
6.57184e-36
5.81471e-35
-6.53127e-39
-3.58667e-35
-1.0589e-35
-1.63654e-35
-1.77893e-36
3.23554e-36
8.70191e-35
-1.43757e-35
5.5915e-36
3.53659e-36
3.81099e-35
3.88718e-34
1.56934e-35
-3.64744e-40
1.84092e-34
-4.06337e-37
-5.38989e-43
5.53747e-35
8.69604e-35
5.13399e-34
-3.85373e-37
2.09301e-34
7.16759e-35
5.11355e-34
-6.15167e-35
1.11222e-34
1.82246e-36
-1.76817e-37
4.76896e-35
3.33744e-34
9.17751e-35
1.63055e-34
-2.15563e-35
1.30038e-35
1.2837e-35
-9.82162e-39
4.0548e-35
-2.15672e-38
4.63983e-35
1.10525e-38
-2.25406e-43
-2.22626e-36
1.19535e-34
3.46594e-35
3.67257e-39
7.11027e-46
-2.07427e-36
5.72728e-35
1.18986e-40
3.58982e-35
4.95747e-36
3.53548e-36
1.81296e-36
1.19672e-42
9.20411e-38
-2.55473e-41
5.59435e-37
-2.81374e-37
1.43463e-35
6.64876e-39
6.94691e-36
1.63736e-36
7.90631e-36
8.39505e-39
-1.64415e-37
2.28575e-36
1.91132e-39
1.40401e-37
1.79459e-37
4.00483e-38
-7.48213e-39
-1.58007e-39
4.14657e-38
6.40653e-38
3.36208e-41
1.38777e-39
-6.07076e-41
-2.24953e-41
-1.72725e-42
-2.1684e-18
-1.30104e-18
3.85611e-42
4.33681e-19
4.06055e-43
-2.56562e-43
-2.1684e-19
-2.48896e-43
-1.24468e-41
4.6374e-45
-7.43923e-43
-1.2405e-41
-3.62047e-41
-3.20989e-41
1.34791e-41
-4.28888e-42
3.31925e-43
4.37725e-43
-8.34883e-44
-1.80767e-44
4.28945e-46
-3.90146e-45
-8.43905e-45
-9.36217e-46
1.21272e-45
-4.15333e-45
-1.23853e-44
-3.74502e-47
3.04411e-45
2.22622e-45
-2.50891e-48
-1.77824e-48
-9.35029e-49
-1.33962e-45
3.69436e-47
-1.30104e-18
-3.25261e-18
-2.1684e-18
1.38381e-45
-1.7799e-49
-1.36767e-45
-5.91968e-46
-1.63433e-47
-1.30104e-18
1.30104e-18
-3.1814e-52
1.30104e-18
1.30104e-18
9.70957e-55
4.59055e-56
2.60209e-18
-1.30104e-18
2.1004e-51
-1.30104e-18
-8.67362e-19
1.51877e-48
5.12432e-49
4.55323e-48
0
0
1.6798e-49
-3.46919e-44
2.30821e-43
2.65071e-43
4.52859e-43
1.47296e-42
-2.24275e-42
3.14438e-39
-2.13556e-34
-5.64004e-33
-1.97279e-32
5.25284e-33
-5.90607e-35
1.53747e-33
-8.33158e-41
-8.68213e-36
1.50119e-43
-6.53284e-35
9.89002e-37
2.31195e-39
-9.48056e-34
1.40568e-33
-2.53115e-34
1.20002e-39
1.69506e-39
7.18735e-35
1.44866e-34
3.77616e-34
-6.43116e-37
3.20305e-39
-1.48144e-36
-7.40369e-46
1.68179e-38
4.61136e-39
4.92831e-44
3.19937e-40
3.46394e-36
-1.7828e-35
8.97273e-35
-9.51842e-38
-1.88475e-36
-2.52982e-43
2.44696e-39
-3.18903e-35
-6.17382e-37
-8.20703e-35
-6.87284e-37
-2.93629e-35
1.07908e-34
5.79094e-37
3.77171e-35
7.43091e-36
-2.74451e-35
-1.17913e-38
-2.2948e-34
-3.30909e-35
-4.9404e-35
2.05385e-36
-2.16313e-35
1.33396e-35
2.41233e-34
8.24745e-35
6.59308e-35
4.7384e-34
-6.59051e-36
3.43533e-34
-3.188e-36
-1.03259e-34
-7.89144e-37
-6.57716e-37
-1.14195e-34
1.01167e-35
3.80092e-34
-3.39881e-41
9.63673e-35
1.74842e-34
-8.71108e-35
4.55444e-34
-6.93009e-35
1.48907e-35
-2.38434e-37
-9.24104e-35
7.25334e-34
-2.5648e-35
2.54604e-35
-1.56058e-34
-5.68808e-38
6.76706e-36
-9.4341e-45
4.53635e-36
6.01636e-36
1.29619e-34
1.10395e-35
5.0445e-36
-4.09788e-35
-2.45577e-35
6.80276e-36
2.475e-41
7.19949e-39
-1.31006e-35
-5.02488e-35
4.34679e-39
5.97648e-36
-1.40754e-35
2.06935e-36
-1.35767e-35
3.11689e-36
8.8699e-37
-5.43029e-41
-7.44257e-36
-2.77844e-36
-1.94817e-37
5.29904e-41
1.7767e-37
3.01286e-39
1.23112e-35
4.05347e-39
1.33879e-37
-1.87089e-36
8.18346e-40
8.24801e-38
-1.29255e-37
7.97289e-38
7.75977e-39
1.44813e-37
-7.45037e-40
-8.69661e-40
-1.2093e-41
4.50086e-40
3.28985e-41
4.61794e-41
5.94806e-42
4.29605e-42
1.27438e-42
-1.42302e-19
3.23977e-43
3.11001e-42
9.09843e-42
1.03637e-41
8.99018e-42
1.43223e-41
1.81644e-46
2.11717e-42
3.46613e-42
2.23208e-40
6.20432e-41
-7.26908e-42
-3.39677e-43
6.7268e-44
-6.97169e-43
-2.07812e-43
-7.15336e-47
-1.62261e-46
-1.49191e-46
-2.80648e-46
-1.35105e-44
-9.06362e-46
1.35397e-44
9.35045e-44
-4.89823e-45
-1.0737e-44
2.10563e-45
1.05931e-44
1.9723e-44
-2.35546e-48
9.39682e-45
-3.87226e-47
1.61848e-44
-2.60209e-18
-9.54807e-45
-1.30104e-18
-5.20417e-18
1.39416e-45
1.15481e-45
2.60209e-18
-1.30104e-18
-9.1529e-47
-1.0842e-18
-1.62706e-48
-1.30104e-18
-1.44156e-49
-1.02226e-50
0
1.41994e-50
1.98357e-50
0
4.36222e-52
-1.60132e-44
-1.86611e-46
-4.54912e-45
2.8797e-51
0
0
5.26526e-46
6.76367e-45
2.89464e-45
3.60031e-45
-2.6317e-42
2.1184e-40
3.06033e-40
-9.08742e-34
3.03528e-34
6.37571e-33
-3.09252e-33
-1.93414e-35
-3.44377e-36
-7.43912e-43
-7.55182e-36
8.57989e-43
-2.46253e-38
2.32778e-34
1.17701e-38
1.72143e-33
2.03991e-33
4.67022e-34
1.3483e-39
1.55521e-37
-4.31592e-35
3.84617e-37
-2.63204e-35
-2.88706e-35
-3.23729e-35
7.60379e-36
-7.70016e-38
-4.60545e-40
-3.06364e-36
3.43927e-41
5.48255e-38
4.3192e-37
3.35346e-35
-8.2448e-35
1.32938e-39
3.66249e-41
-1.00682e-42
3.05314e-39
5.94089e-35
-3.69533e-35
5.98273e-35
5.03554e-35
1.28112e-34
5.75512e-35
1.19455e-35
9.05147e-35
5.37102e-35
5.84324e-35
-9.03609e-37
-2.00873e-34
-7.18614e-35
-8.83922e-35
-9.71447e-37
2.08468e-35
1.17516e-36
6.33807e-35
1.54243e-33
3.0549e-34
-5.85867e-35
5.48433e-34
3.13942e-34
-1.12554e-36
1.01246e-34