/*--------------------------------*- C++ -*----------------------------------*\
| =========                 |                                                 |
| \\      /  F ield         | OpenFOAM: The Open Source CFD Toolbox           |
|  \\    /   O peration     | Version:  2212                                  |
|   \\  /    A nd           | Website:  www.openfoam.com                      |
|    \\/     M anipulation  |                                                 |
\*---------------------------------------------------------------------------*/
FoamFile
{
    version     2.0;
    format      ascii;
    arch        "LSB;label=32;scalar=64";
    class       volScalarField;
    location    "5000";
    object      theta1_Scaled_;
}
// * * * * * * * * * * * * * * * * * * * * * * * * * * * * * * * * * * * * * //

dimensions      [0 0 0 0 0 0 0];

internalField   nonuniform List<scalar> 
10368
(
0.000931276
0.000953687
0.000933201
0.00090594
0.000887322
0.000863835
0.000841478
0.000806725
0.000763369
0.000694961
0.000617772
0.000506769
0.000400865
0.000272419
0.000167688
6.95258e-05
3.09605e-05
4.37702e-08
2.46466e-07
7.86067e-05
0.000405845
0.00124682
0.0023413
0.00309879
0.00334209
0.00356141
0.00369432
0.00356625
0.00332495
0.00313226
0.00296288
0.00284102
0.00274241
0.00268281
0.00259957
0.002533
0.00244388
0.00237851
0.00228539
0.00221586
0.00210884
0.00203113
0.00193403
0.00185592
0.00175686
0.00166925
0.00156455
0.00145919
0.0013161
0.00118797
0.00104884
0.000911639
0.000750083
0.00056198
0.000380112
0.000236438
0.000100727
8.84127e-06
6.28395e-06
1.88125e-05
1.46866e-05
9.86503e-06
6.94328e-06
5.50707e-06
4.55209e-06
2.54756e-06
1.24671e-06
7.64167e-07
6.33071e-07
6.45607e-07
6.96691e-07
8.41156e-07
1.03214e-06
1.21185e-06
1.3865e-06
1.56987e-06
1.81163e-06
2.07888e-06
2.41393e-06
2.75942e-06
3.10656e-06
3.48037e-06
3.89034e-06
4.34274e-06
4.82652e-06
5.3529e-06
5.9072e-06
6.50879e-06
7.14343e-06
7.8161e-06
8.57761e-06
9.40634e-06
1.03316e-05
1.13757e-05
1.24833e-05
1.36208e-05
1.48531e-05
1.61773e-05
1.76751e-05
1.92456e-05
2.08176e-05
2.24803e-05
2.42296e-05
2.61319e-05
2.81915e-05
3.03799e-05
3.26594e-05
3.49858e-05
3.73662e-05
3.9879e-05
4.25291e-05
4.53822e-05
4.84407e-05
5.16307e-05
5.4925e-05
5.82123e-05
6.14606e-05
6.47748e-05
6.8274e-05
7.17833e-05
7.50384e-05
7.79639e-05
8.07653e-05
8.34726e-05
8.60395e-05
8.85458e-05
9.11197e-05
9.40511e-05
9.73403e-05
0.000101191
0.000106115
0.000113171
0.000122656
0.000132032
0.000138897
0.000146619
0.00015575
0.000158798
0.000155623
0.000158116
0.000167754
0.00017308
0.000178255
0.000182609
0.00018655
0.000189967
0.000192926
0.000195272
0.000196962
0.000197815
0.000197813
0.000196548
0.00019413
0.000190996
0.000187499
0.000182813
0.000175812
0.000165
0.000149901
0.00013107
0.000109195
8.54602e-05
6.09783e-05
3.76868e-05
1.78015e-05
4.19889e-06
1.34045e-07
9.00039e-06
3.3663e-05
7.57135e-05
0.000134458
0.000206704
0.000287003
0.000369928
0.00044915
0.000520807
0.000581517
0.000632903
0.000672363
0.000704081
0.000725277
0.000742797
0.000751852
0.000760897
0.00076183
0.000765698
0.000761153
0.000761803
0.000753626
0.000752609
0.000742198
0.000743851
0.0310699
0.0318241
0.0311687
0.0302921
0.0296933
0.0289385
0.0282242
0.0271123
0.02573
0.0235312
0.0210477
0.0174257
0.0139477
0.00964435
0.00608344
0.00263586
0.00120261
1.13905e-05
6.1572e-07
0.0026661
0.0128085
0.0375465
0.0680693
0.0892667
0.0973976
0.103844
0.107815
0.105585
0.100059
0.095253
0.0908292
0.0875622
0.0848427
0.0832006
0.0809218
0.0791118
0.0766411
0.0748334
0.0722125
0.0702722
0.0672439
0.065027
0.0622156
0.0599639
0.0570691
0.0545222
0.0514242
0.0483533
0.0441102
0.0402495
0.0359848
0.0317409
0.0266984
0.0207123
0.0146591
0.00962783
0.00463576
0.000727504
5.43633e-05
0.00045019
0.000421789
0.00030845
0.00022453
0.000179726
0.000148202
8.37203e-05
4.20399e-05
2.6338e-05
2.20438e-05
2.26074e-05
2.45103e-05
2.95544e-05
3.61851e-05
4.24162e-05
4.85036e-05
5.49656e-05
6.33969e-05
7.27494e-05
8.43293e-05
9.62942e-05
0.000108394
0.000121442
0.000135753
0.000151526
0.000168422
0.000186789
0.000206189
0.000227229
0.000249491
0.00027318
0.000299873
0.000328942
0.000361298
0.000397579
0.000436072
0.000475775
0.000518688
0.000564785
0.000616476
0.000670646
0.000725121
0.000782651
0.000843225
0.000908874
0.00097969
0.00105476
0.00113285
0.00121266
0.00129446
0.0013807
0.00147159
0.00156909
0.00167318
0.0017815
0.00189304
0.00200445
0.00211476
0.00222718
0.00234491
0.00246258
0.00257214
0.0026717
0.00276715
0.00285983
0.00294835
0.00303564
0.00312567
0.00322752
0.00334155
0.00347469
0.00364246
0.0038739
0.004182
0.0044856
0.00471024
0.00495899
0.00524066
0.00533929
0.0052593
0.00534041
0.00564302
0.00581211
0.00597503
0.00611175
0.00623438
0.00633954
0.00642892
0.00649768
0.00654403
0.00656257
0.00655205
0.00649971
0.00640906
0.00629374
0.00616525
0.00599679
0.00575165
0.00538216
0.0048736
0.00424411
0.00351756
0.00273342
0.0019293
0.00117019
0.000530997
0.000108746
1.3011e-05
0.000357121
0.00123512
0.00269627
0.00471103
0.00716612
0.0098741
0.012652
0.015291
0.0176682
0.0196758
0.0213706
0.0226705
0.0237144
0.0244119
0.024988
0.0252865
0.0255839
0.0256158
0.025743
0.0255952
0.0256168
0.0253498
0.0253164
0.0249765
0.0250318
0.219813
0.225489
0.221955
0.217162
0.213857
0.209655
0.205663
0.199366
0.191437
0.178425
0.163251
0.139857
0.1161
0.0843552
0.0560542
0.0260909
0.0123478
0.00029121
2.05966e-05
0.0237399
0.0985327
0.238074
0.36171
0.428918
0.453991
0.470878
0.480811
0.477616
0.46613
0.455006
0.44405
0.435557
0.428158
0.423624
0.417262
0.41216
0.404944
0.39959
0.391547
0.385532
0.3758
0.368463
0.358803
0.350923
0.3404
0.330952
0.318926
0.30683
0.289187
0.272194
0.252241
0.231238
0.204684
0.170376
0.131153
0.0940408
0.0523358
0.0123297
5.59469e-06
0.00258727
0.00314788
0.00255449
0.00193341
0.0015642
0.00128712
0.000734796
0.00037947
0.000243343
0.000205864
0.000212369
0.000231339
0.000278566
0.000340288
0.000398201
0.000455074
0.000516114
0.000594916
0.000682611
0.000789797
0.000900755
0.00101369
0.00113561
0.00126934
0.00141649
0.00157434
0.00174574
0.00192728
0.00212394
0.00233257
0.00255536
0.00280513
0.00307715
0.0033788
0.0037147
0.00407091
0.00443964
0.00483696
0.00526321
0.00573659
0.00623202
0.0067321
0.00725892
0.00781338
0.00841155
0.00905365
0.00973188
0.0104354
0.0111546
0.011892
0.0126672
0.0134824
0.0143522
0.0152753
0.0162319
0.0172122
0.0181906
0.0191594
0.0201438
0.0211639
0.022178
0.0231243
0.0239926
0.0248246
0.025635
0.0264134
0.0271874
0.0279873
0.0288849
0.0298857
0.031048
0.0324856
0.0343839
0.0368935
0.0393214
0.0411395
0.0431086
0.0452238
0.0460105
0.0455713
0.0462132
0.0485097
0.0498109
0.0510457
0.0520755
0.0529867
0.0537543
0.0543896
0.0548556
0.0551365
0.0551951
0.055013
0.054497
0.0536727
0.0526403
0.0514872
0.0500025
0.0478932
0.0447839
0.0405486
0.03531
0.0292477
0.0226723
0.0158969
0.00948573
0.00412131
0.000701999
0.000240934
0.00374088
0.0119277
0.0249809
0.0422639
0.0624235
0.0836512
0.104432
0.12332
0.13968
0.153043
0.164015
0.172254
0.178758
0.183056
0.18657
0.18839
0.190184
0.190391
0.191157
0.190289
0.190421
0.188836
0.188637
0.186608
0.186948
0.533882
0.545752
0.541564
0.53575
0.531676
0.526414
0.521343
0.513159
0.502558
0.484221
0.461422
0.42241
0.377533
0.306208
0.228657
0.124415
0.0641576
0.0029061
0.000714922
0.103992
0.317503
0.54235
0.662528
0.710493
0.726736
0.736168
0.741363
0.739937
0.733834
0.727671
0.72148
0.716583
0.712222
0.709549
0.705752
0.702695
0.698245
0.694928
0.689792
0.685948
0.679496
0.674538
0.667784
0.662199
0.654457
0.647373
0.637942
0.628306
0.613376
0.598099
0.578837
0.55706
0.527037
0.48303
0.422081
0.349584
0.243058
0.0887662
0.00335563
0.00640998
0.0118867
0.0110316
0.00875714
0.00718169
0.00590425
0.00341526
0.00182104
0.00119823
0.00102553
0.00106455
0.00116526
0.0014009
0.00170692
0.00199343
0.00227623
0.00258306
0.00297467
0.0034116
0.00393813
0.00448388
0.00504265
0.00564608
0.00630733
0.00703299
0.00781177
0.00865531
0.00955008
0.010517
0.0115441
0.0126428
0.0138661
0.0151957
0.0166612
0.0182779
0.0199875
0.0217586
0.0236559
0.0256819
0.0279031
0.0302169
0.0325529
0.0349988
0.0375617
0.0403027
0.0432177
0.0462716
0.0494161
0.0526157
0.0558807
0.0592864
0.0628401
0.0665896
0.0705215
0.0745537
0.0786409
0.0826909
0.086676
0.0906854
0.0947703
0.0987845
0.102515
0.105951
0.109222
0.112401
0.115455
0.118498
0.121631
0.125102
0.128931
0.133322
0.138606
0.145195
0.153886
0.161839
0.167864
0.174155
0.180455
0.182943
0.182165
0.184153
0.190926
0.194792
0.198355
0.201272
0.20378
0.205816
0.207408
0.208449
0.208897
0.208648
0.207614
0.205538
0.202478
0.198694
0.194411
0.188968
0.181425
0.170547
0.15577
0.137187
0.115089
0.0902989
0.0638165
0.0379071
0.0157987
0.00208505
0.00194958
0.0197177
0.0566494
0.10966
0.171801
0.235191
0.293456
0.343634
0.384359
0.416431
0.440688
0.459405
0.472826
0.483033
0.489635
0.494905
0.497639
0.500268
0.500632
0.501752
0.50058
0.500784
0.498589
0.498314
0.495465
0.49596
0.731869
0.7396
0.737363
0.734189
0.731954
0.729037
0.726198
0.72155
0.715422
0.704491
0.69036
0.664427
0.631711
0.571141
0.489707
0.336921
0.20662
0.0175256
0.00709046
0.272212
0.556209
0.727783
0.797982
0.821236
0.828276
0.831689
0.833294
0.832188
0.828873
0.825718
0.822737
0.820446
0.818449
0.817273
0.815571
0.814216
0.812199
0.810731
0.808445
0.806786
0.803887
0.80169
0.798633
0.796145
0.792605
0.78939
0.785004
0.780598
0.773483
0.766091
0.756523
0.745521
0.729961
0.70592
0.668993
0.618499
0.526895
0.311395
0.0442516
0.0067831
0.0293846
0.0327573
0.0276466
0.0231049
0.0190351
0.0112159
0.00621504
0.00421227
0.00365224
0.00381668
0.00419794
0.00503574
0.00611578
0.00712316
0.00812164
0.00921587
0.010594
0.0121327
0.0139561
0.0158447
0.0177861
0.0198785
0.0221629
0.024656
0.0273242
0.0301977
0.0332392
0.0365052
0.039965
0.0436551
0.0477157
0.0520962
0.0568668
0.0620479
0.0674757
0.0730646
0.0789732
0.0852041
0.0918928
0.0987717
0.105657
0.11276
0.120102
0.127813
0.135857
0.144133
0.152503
0.160893
0.169323
0.177955
0.186794
0.195911
0.205251
0.214617
0.223897
0.232922
0.241641
0.250229
0.258734
0.266904
0.274382
0.281218
0.287621
0.293771
0.299622
0.305414
0.311302
0.317695
0.324621
0.332395
0.341417
0.35183
0.365887
0.377242
0.386015
0.394725
0.402646
0.405802
0.405349
0.407873
0.416181
0.420796
0.424838
0.427964
0.430453
0.43224
0.43335
0.43362
0.433066
0.431456
0.428673
0.424372
0.418578
0.411496
0.403262
0.392903
0.379021
0.359685
0.33362
0.300009
0.258097
0.208092
0.150772
0.0905188
0.0362478
0.00322092
0.00895354
0.0628725
0.156456
0.267448
0.373707
0.463124
0.532662
0.584881
0.622936
0.650505
0.670074
0.684417
0.694351
0.701662
0.706344
0.709971
0.711902
0.713671
0.714022
0.714778
0.714156
0.71431
0.71306
0.712906
0.711247
0.711554
0.815708
0.818883
0.817882
0.816402
0.81537
0.81401
0.812668
0.810451
0.807492
0.80216
0.795184
0.782088
0.765095
0.731748
0.682447
0.567157
0.427678
0.0739743
0.0396478
0.463584
0.697744
0.805201
0.851314
0.862978
0.865726
0.866401
0.866334
0.865068
0.862462
0.860185
0.858255
0.856864
0.855718
0.855108
0.854185
0.853472
0.852363
0.851609
0.850456
0.849695
0.848227
0.847175
0.845655
0.844484
0.842733
0.841197
0.839018
0.836953
0.833355
0.829649
0.824804
0.819465
0.812035
0.800478
0.782115
0.75662
0.709226
0.568267
0.21169
0.000451801
0.0511362
0.0747631
0.0684681
0.0588434
0.0488792
0.0296198
0.0172357
0.0121045
0.0106539
0.0112136
0.0123885
0.0148098
0.0178952
0.0207575
0.023597
0.0267317
0.0306118
0.0349282
0.0399318
0.0450853
0.0503774
0.0560381
0.0621578
0.0687555
0.0757473
0.083177
0.0909619
0.0991977
0.107822
0.116903
0.126681
0.137035
0.148047
0.15968
0.171608
0.183657
0.196068
0.208818
0.222045
0.235297
0.24827
0.261286
0.274386
0.287724
0.301203
0.314647
0.327842
0.340719
0.353315
0.365842
0.378295
0.390731
0.403056
0.415023
0.426511
0.437377
0.447599
0.457378
0.466721
0.475422
0.483192
0.490182
0.496573
0.502598
0.508233
0.513753
0.519283
0.525186
0.531478
0.53842
0.546229
0.554561
0.566547
0.574324
0.580647
0.586576
0.591088
0.592455
0.592103
0.593484
0.598245
0.600444
0.602093
0.602988
0.603293
0.602955
0.601947
0.600122
0.597565
0.593883
0.589041
0.582689
0.57477
0.565208
0.553781
0.539549
0.521224
0.496956
0.465201
0.424052
0.371145
0.305041
0.224763
0.134962
0.0504963
0.00208822
0.0244827
0.124248
0.266147
0.406146
0.520602
0.606004
0.66699
0.710124
0.740236
0.76131
0.775849
0.786187
0.793218
0.798234
0.801446
0.803835
0.805176
0.806308
0.806658
0.807145
0.806941
0.807059
0.80653
0.806467
0.805723
0.805881
0.849323
0.850935
0.850493
0.849763
0.84927
0.848605
0.84793
0.846794
0.845244
0.842431
0.838725
0.831695
0.822699
0.805018
0.778588
0.711934
0.618515
0.215709
0.136965
0.589059
0.756684
0.829236
0.875277
0.88054
0.881292
0.880652
0.879756
0.878405
0.876067
0.874079
0.872535
0.871496
0.870688
0.870325
0.869736
0.869314
0.868593
0.868165
0.867414
0.867014
0.866059
0.865445
0.864475
0.863818
0.862716
0.861832
0.860444
0.85931
0.85699
0.854638
0.851492
0.848386
0.844233
0.83779
0.827317
0.813302
0.789513
0.715278
0.463854
0.0311589
0.0584487
0.135407
0.138651
0.124284
0.105187
0.0665504
0.0413143
0.0303398
0.0271898
0.0288303
0.0319515
0.0379763
0.0454673
0.0523821
0.0591871
0.0667079
0.0757848
0.085756
0.09695
0.108304
0.119833
0.131941
0.144753
0.158233
0.172198
0.186649
0.201436
0.216635
0.232147
0.248035
0.264531
0.281422
0.298704
0.31621
0.333531
0.350463
0.367246
0.383837
0.400297
0.416213
0.431305
0.445931
0.460178
0.474179
0.487831
0.500997
0.513503
0.525374
0.536675
0.547613
0.558187
0.568437
0.578289
0.587567
0.596209
0.60417
0.611464
0.618253
0.624491
0.630084
0.634896
0.639131
0.642868
0.646304
0.649436
0.652488
0.655527
0.658776
0.662245
0.666094
0.670377
0.674774
0.681525
0.684095
0.686578
0.6886
0.688895
0.687867
0.687054
0.68705
0.687563
0.68689
0.685753
0.684077
0.681889
0.679127
0.67572
0.671599
0.666699
0.660673
0.653486
0.644787
0.634442
0.622088
0.607106
0.588653
0.565684
0.536716
0.500376
0.454275
0.395365
0.321807
0.232459
0.133096
0.0428837
0.000168615
0.0424032
0.164929
0.31918
0.460542
0.571578
0.65317
0.71138
0.75273
0.781732
0.802024
0.815959
0.825715
0.832287
0.836842
0.839887
0.84202
0.843275
0.844233
0.844651
0.84506
0.845078
0.845193
0.845016
0.844998
0.844693
0.844784
0.864151
0.865373
0.865186
0.864776
0.864519
0.864154
0.863763
0.863082
0.862117
0.860336
0.857971
0.853378
0.847785
0.836961
0.821594
0.782006
0.727837
0.415261
0.291364
0.640856
0.769668
0.822331
0.88547
0.887959
0.887893
0.886558
0.88518
0.883808
0.881649
0.879734
0.878317
0.877416
0.876736
0.876495
0.876071
0.875815
0.875284
0.875043
0.874461
0.874256
0.873533
0.873141
0.87241
0.872024
0.871214
0.870681
0.869645
0.869033
0.867362
0.865718
0.863387
0.861137
0.858293
0.853992
0.846702
0.837324
0.824205
0.78154
0.63492
0.193193
0.0301613
0.191883
0.230237
0.219324
0.191824
0.129156
0.0874089
0.0680138
0.0623364
0.0665571
0.0737724
0.0868036
0.102183
0.116369
0.129964
0.144834
0.1621
0.180553
0.200308
0.219741
0.238951
0.258457
0.27834
0.298442
0.318489
0.338391
0.357996
0.37731
0.396289
0.414972
0.433499
0.451678
0.469442
0.486598
0.502921
0.518323
0.533024
0.54702
0.560336
0.572814
0.584326
0.59519
0.605522
0.615423
0.624824
0.63367
0.641866
0.649511
0.656667
0.663492
0.669973
0.676123
0.681893
0.68716
0.691912
0.696158
0.69991
0.703279
0.706158
0.708517
0.710315
0.711791
0.712925
0.713871
0.714624
0.715371
0.716126
0.717013
0.718023
0.719244
0.720632
0.722497
0.724494
0.723064
0.722491
0.721384
0.718108
0.715032
0.713642
0.712574
0.709316
0.706217
0.702576
0.69854
0.693975
0.688805
0.683055
0.676491
0.668991
0.660309
0.650332
0.638704
0.625233
0.609328
0.590049
0.566644
0.538293
0.503885
0.462389
0.411495
0.34857
0.273021
0.185922
0.0959049
0.0234552
0.00137449
0.0546913
0.173487
0.317943
0.452648
0.562246
0.645989
0.708016
0.753595
0.786524
0.810106
0.826575
0.838178
0.846041
0.851596
0.855647
0.858294
0.85986
0.860957
0.861523
0.861974
0.862129
0.862266
0.862267
0.862272
0.862176
0.862241
0.87049
0.871674
0.871622
0.871386
0.871259
0.871056
0.870819
0.870379
0.869731
0.868491
0.866853
0.863537
0.85946
0.851195
0.840752
0.813585
0.78009
0.573424
0.427519
0.649531
0.757807
0.797742
0.879893
0.890221
0.890306
0.888632
0.886944
0.885531
0.883511
0.881479
0.879974
0.879039
0.878325
0.878111
0.877737
0.877569
0.877098
0.876959
0.87645
0.876384
0.87579
0.875546
0.874931
0.874732
0.874075
0.873803
0.872942
0.872722
0.871504
0.87038
0.868586
0.866856
0.864813
0.862079
0.856482
0.848843
0.841288
0.814145
0.720299
0.410409
0.0027196
0.20288
0.311093
0.321399
0.294474
0.214267
0.161866
0.135704
0.127955
0.137337
0.151459
0.175134
0.200517
0.224235
0.245663
0.268516
0.293629
0.319297
0.345083
0.369316
0.392306
0.414606
0.436265
0.457109
0.476964
0.495761
0.51352
0.530244
0.54608
0.561084
0.575356
0.58884
0.601499
0.613223
0.624042
0.633991
0.643247
0.65181
0.659678
0.6669
0.673433
0.679526
0.685265
0.690702
0.695768
0.700451
0.704679
0.708587
0.712204
0.715649
0.718864
0.721839
0.724528
0.726814
0.728713
0.73026
0.731445
0.732359
0.732821
0.732843
0.732422
0.731878
0.731089
0.73021
0.729205
0.728271
0.72736
0.726551
0.725789
0.725102
0.724326
0.725431
0.722547
0.71811
0.715126
0.7114
0.704831
0.700267
0.698506
0.696642
0.689598
0.684447
0.678482
0.672259
0.665424
0.658056
0.650037
0.640983
0.630947
0.619597
0.606792
0.592183
0.57554
0.556131
0.532824
0.505007
0.472105
0.433407
0.388351
0.335168
0.272398
0.201346
0.125641
0.055424
0.00830172
0.00628051
0.0623857
0.167831
0.296054
0.421176
0.528714
0.615181
0.682192
0.733528
0.772142
0.800867
0.821636
0.836677
0.847133
0.854821
0.860702
0.864503
0.866725
0.868177
0.86897
0.869534
0.869802
0.869978
0.87009
0.87011
0.870139
0.87019
0.872136
0.873282
0.873295
0.873181
0.873138
0.87304
0.872905
0.872621
0.872183
0.871285
0.870141
0.867642
0.864519
0.85761
0.849074
0.827553
0.803778
0.661416
0.51498
0.641735
0.733701
0.769255
0.84918
0.889076
0.890609
0.888976
0.887139
0.885685
0.883928
0.881686
0.879941
0.878841
0.877964
0.877697
0.877287
0.877162
0.876665
0.876581
0.876052
0.876076
0.875514
0.875359
0.87474
0.874666
0.874026
0.873951
0.873099
0.873171
0.872229
0.871479
0.86998
0.868706
0.867283
0.866039
0.862201
0.855571
0.851494
0.833858
0.766758
0.56071
0.0740167
0.14101
0.34095
0.391919
0.378345
0.299395
0.256267
0.234483
0.228812
0.246195
0.268625
0.302424
0.333891
0.364441
0.389646
0.415485
0.442096
0.467923
0.492111
0.51372
0.533344
0.551552
0.568423
0.583919
0.598076
0.610907
0.622617
0.633202
0.642969
0.651944
0.660202
0.667754
0.674578
0.680599
0.686005
0.690871
0.695315
0.69928
0.702725
0.705823
0.708527
0.711056
0.713437
0.715691
0.717716
0.71953
0.721038
0.722415
0.723641
0.724842
0.725887
0.726757
0.727412
0.727703
0.727679
0.727397
0.726798
0.72601
0.724763
0.723117
0.721055
0.719055
0.716862
0.714677
0.712396
0.710271
0.708155
0.706125
0.704038
0.701847
0.699907
0.700466
0.692283
0.685469
0.680471
0.674383
0.664556
0.659557
0.657655
0.655236
0.64415
0.637341
0.629263
0.621024
0.612399
0.603133
0.592977
0.58182
0.569577
0.555935
0.540723
0.523627
0.504404
0.482272
0.456035
0.425303
0.389795
0.349279
0.303748
0.252239
0.194641
0.133734
0.0744545
0.0261173
0.00156661
0.0138188
0.069042
0.160985
0.272985
0.38691
0.489987
0.576982
0.647337
0.703378
0.74722
0.7812
0.806819
0.82612
0.840068
0.850316
0.858269
0.864029
0.867526
0.869745
0.870967
0.871774
0.872194
0.872453
0.872657
0.872696
0.872819
0.872863
0.871536
0.872467
0.87245
0.872416
0.872418
0.87237
0.872287
0.872073
0.871741
0.870985
0.870106
0.86796
0.865523
0.859627
0.852203
0.833405
0.814278
0.706188
0.571471
0.632761
0.706766
0.738456
0.788209
0.883603
0.888931
0.888217
0.886519
0.885141
0.88403
0.881651
0.879608
0.878266
0.87713
0.876737
0.876224
0.876113
0.875538
0.875486
0.874867
0.874945
0.874351
0.874256
0.873542
0.87356
0.87283
0.872932
0.871962
0.872266
0.871483
0.871071
0.869705
0.868783
0.867667
0.867613
0.865684
0.8603
0.859093
0.848674
0.797686
0.651884
0.229423
0.0425567
0.296317
0.398923
0.41146
0.35301
0.341683
0.34117
0.345668
0.371556
0.40057
0.436952
0.466002
0.495855
0.518643
0.54062
0.5619
0.58169
0.598984
0.613694
0.626528
0.638014
0.648188
0.657094
0.66489
0.671592
0.677504
0.682535
0.687097
0.691114
0.694633
0.69765
0.700129
0.701983
0.703518
0.704792
0.705891
0.706681
0.707076
0.707386
0.707469
0.707587
0.70769
0.707804
0.70778
0.707683
0.707416
0.707132
0.70681
0.706511
0.706077
0.705488
0.704639
0.703408
0.701949
0.700285
0.698438
0.696415
0.693951
0.691101
0.687989
0.684988
0.681804
0.678759
0.675598
0.672686
0.669712
0.666808
0.66369
0.660764
0.658769
0.656208
0.643671
0.634855
0.628146
0.619921
0.606868
0.602768
0.600814
0.598114
0.582674
0.574608
0.564585
0.554678
0.544864
0.533767
0.521956
0.509126
0.495159
0.479777
0.462789
0.443963
0.423058
0.399331
0.371639
0.339883
0.304131
0.264659
0.221982
0.175927
0.127414
0.0798029
0.0379731
0.00920484
0.00193342
0.0234543
0.0765776
0.157139
0.254792
0.357157
0.453784
0.538913
0.610467
0.669461
0.717198
0.755553
0.785625
0.809224
0.827024
0.840312
0.850087
0.858079
0.863569
0.867301
0.869424
0.870765
0.871468
0.871922
0.872232
0.872309
0.872516
0.872559
0.870311
0.870649
0.870507
0.870533
0.870548
0.87051
0.870444
0.870237
0.869943
0.869185
0.868425
0.86631
0.864278
0.858795
0.85272
0.835576
0.818844
0.731422
0.614018
0.629387
0.683663
0.708747
0.697827
0.868147
0.883255
0.886059
0.885005
0.883656
0.883942
0.881779
0.879534
0.877947
0.876509
0.875926
0.875249
0.875129
0.874446
0.874415
0.873675
0.873788
0.873134
0.873109
0.872251
0.872367
0.871473
0.871779
0.870613
0.871133
0.870433
0.870421
0.869104
0.868531
0.867435
0.868306
0.868044
0.864028
0.864919
0.861888
0.82176
0.711992
0.386298
0.0129672
0.184494
0.333309
0.381393
0.357524
0.387573
0.418598
0.439915
0.473152
0.504724
0.536713
0.558764
0.582179
0.600823
0.616515
0.630848
0.643814
0.65422
0.662499
0.669333
0.675223
0.680062
0.68391
0.686973
0.689219
0.691036
0.692184
0.69322
0.693892
0.694265
0.694256
0.69383
0.692864
0.691813
0.690664
0.689508
0.688141
0.686417
0.684867
0.683149
0.681795
0.680349
0.678978
0.677444
0.675939
0.674438
0.672954
0.671646
0.670295
0.668752
0.667036
0.664823
0.662312
0.659677
0.65682
0.654116
0.651129
0.647851
0.644092
0.640536
0.63695
0.63333
0.629764
0.626176
0.622696
0.619257
0.615753
0.612078
0.608965
0.605774
0.59876
0.582855
0.57234
0.564133
0.553877
0.538094
0.53572
0.534013
0.530919
0.511037
0.501993
0.4902
0.479422
0.468352
0.455934
0.442922
0.428927
0.413813
0.397368
0.379393
0.359779
0.3383
0.314328
0.286868
0.256145
0.222567
0.186854
0.149878
0.11204
0.074767
0.0412226
0.0154756
0.00262531
0.00785416
0.0351714
0.0858142
0.157065
0.242492
0.333785
0.422862
0.50429
0.575169
0.635452
0.685678
0.72726
0.760945
0.788326
0.809813
0.826583
0.838777
0.848451
0.855894
0.861563
0.865279
0.867679
0.868948
0.869808
0.870284
0.87046
0.870759
0.870819
0.868921
0.868511
0.868214
0.868272
0.868286
0.868235
0.86817
0.867941
0.867658
0.86683
0.866137
0.863906
0.862149
0.856651
0.852006
0.836392
0.821034
0.748509
0.650227
0.633594
0.668238
0.684441
0.619208
0.826592
0.870727
0.881376
0.882729
0.881755
0.88377
0.881918
0.879662
0.878001
0.876348
0.875544
0.874663
0.874516
0.87372
0.87371
0.872848
0.872978
0.872259
0.87233
0.871307
0.871548
0.870429
0.870986
0.869568
0.870314
0.869595
0.870105
0.86875
0.86867
0.86736
0.869004
0.870013
0.867504
0.868878
0.873519
0.842655
0.75589
0.515621
0.0904688
0.0607682
0.213757
0.29359
0.318476
0.384516
0.44669
0.486385
0.526968
0.558663
0.585565
0.601655
0.617703
0.633194
0.644903
0.653964
0.662061
0.66768
0.671516
0.674226
0.676407
0.677746
0.678302
0.678322
0.677693
0.676947
0.675616
0.674501
0.673067
0.671491
0.669537
0.667355
0.664625
0.661774
0.658985
0.656327
0.653376
0.650247
0.64721
0.644327
0.642061
0.639515
0.637031
0.6342
0.631366
0.628729
0.626241
0.624141
0.621939
0.619458
0.616744
0.613362
0.609895
0.606353
0.602626
0.599279
0.595537
0.59162
0.58719
0.5834
0.579552
0.576146
0.57225
0.568691
0.564849
0.561276
0.557309
0.553308
0.549153
0.543392
0.5326
0.513498
0.501519
0.491963
0.479484
0.462221
0.461957
0.461146
0.456511
0.432806
0.422912
0.409938
0.398827
0.386593
0.373463
0.359798
0.345277
0.329734
0.313066
0.295071
0.275787
0.255015
0.232297
0.206848
0.179185
0.149984
0.120247
0.0909805
0.0628694
0.0374002
0.017118
0.0050515
0.0044615
0.0184542
0.0491852
0.0971858
0.160703
0.235747
0.316818
0.397919
0.474399
0.543109
0.603256
0.65473
0.698473
0.734889
0.765349
0.790055
0.810112
0.825445
0.837244
0.846196
0.853378
0.858774
0.862835
0.86514
0.866762
0.867551
0.867954
0.868387
0.868498
0.866958
0.866403
0.865988
0.866029
0.866032
0.865953
0.865884
0.865616
0.86534
0.864416
0.863782
0.861391
0.85994
0.854306
0.851131
0.837142
0.822707
0.762231
0.682889
0.644939
0.662095
0.66842
0.588925
0.758176
0.841707
0.871041
0.878645
0.879551
0.883443
0.882257
0.880149
0.878428
0.876524
0.875498
0.874439
0.874272
0.87342
0.873451
0.872516
0.872648
0.871876
0.872085
0.870905
0.871312
0.869927
0.870786
0.869079
0.870086
0.869196
0.870378
0.868853
0.869497
0.867717
0.870091
0.87174
0.871287
0.87125
0.882825
0.861837
0.791604
0.613904
0.224172
0.00806709
0.085027
0.178048
0.255195
0.343774
0.429711
0.486392
0.534559
0.567484
0.59109
0.603738
0.615006
0.62755
0.637931
0.644825
0.64937
0.65234
0.653115
0.653572
0.653674
0.653055
0.651748
0.649973
0.647771
0.645485
0.642871
0.640438
0.637844
0.635173
0.631919
0.628715
0.624959
0.620728
0.616784
0.613118
0.608769
0.604809
0.600093
0.596437
0.593172
0.589639
0.586098
0.582062
0.57796
0.57428
0.571006
0.568161
0.565123
0.561796
0.558114
0.553771
0.549453
0.545137
0.540861
0.53705
0.532769
0.528227
0.523427
0.519611
0.515822
0.512759
0.508838
0.505491
0.501702
0.497998
0.493534
0.488754
0.483209
0.474858
0.45997
0.437799
0.424569
0.413836
0.398924
0.381872
0.383792
0.384578
0.376907
0.350624
0.340025
0.326918
0.315491
0.302787
0.289615
0.276007
0.261761
0.246686
0.230805
0.213922
0.196223
0.177532
0.157591
0.135849
0.113025
0.0899387
0.0676636
0.0471407
0.0291202
0.0148505
0.00613457
0.005007
0.0134849
0.0333658
0.0657998
0.111018
0.167909
0.234027
0.305792
0.3789
0.449643
0.515019
0.573809
0.625422
0.670369
0.708714
0.741564
0.768948
0.791847
0.810079
0.824753
0.835706
0.844358
0.850751
0.856368
0.860011
0.862866
0.864254
0.865132
0.86578
0.866006
0.864595
0.864482
0.864041
0.864017
0.864004
0.863887
0.863815
0.8635
0.863237
0.862227
0.861656
0.859152
0.858094
0.852386
0.85074
0.838491
0.82479
0.774581
0.712977
0.661858
0.665243
0.662701
0.57049
0.703831
0.794322
0.84543
0.870611
0.876536
0.882008
0.88231
0.880879
0.879326
0.877303
0.876027
0.874737
0.874458
0.873515
0.873514
0.872544
0.872674
0.871917
0.872317
0.871067
0.871682
0.870032
0.871234
0.869229
0.870566
0.869308
0.871324
0.869423
0.871091
0.868533
0.8718
0.873085
0.875557
0.872315
0.88978
0.878426
0.822349
0.687563
0.365231
0.0538396
0.00836393
0.0781265
0.188519
0.283517
0.382643
0.454447
0.509794
0.545408
0.567057
0.577939
0.587754
0.598625
0.60789
0.615403
0.616306
0.618528
0.616955
0.61671
0.615936
0.614504
0.612407
0.609647
0.606918
0.603641
0.600798
0.5974
0.594306
0.59097
0.586837
0.582724
0.578023
0.572778
0.567996
0.563434
0.557876
0.552947
0.54675
0.542371
0.538116
0.533611
0.528885
0.52365
0.518448
0.513809
0.509737
0.506113
0.502192
0.497971
0.493261
0.487935
0.482778
0.477738
0.473019
0.468847
0.464135
0.459096
0.454153
0.450578
0.447264
0.44451
0.440965
0.437987
0.434446
0.430683
0.425722
0.420078
0.412902
0.4016
0.38244
0.357617
0.343417
0.331819
0.314694
0.299436
0.303412
0.306164
0.294613
0.267429
0.256383
0.24439
0.232753
0.220528
0.208135
0.195466
0.182449
0.168881
0.154901
0.14033
0.125464
0.110157
0.0943378
0.0776853
0.0609915
0.0450848
0.0309243
0.0192537
0.010757
0.00627106
0.00696903
0.0141351
0.0289809
0.0525069
0.0853449
0.127611
0.178617
0.236913
0.30022
0.365545
0.430105
0.491277
0.547669
0.598403
0.643645
0.683156
0.717738
0.747257
0.772582
0.793305
0.810639
0.824129
0.834924
0.842641
0.849131
0.853826
0.857953
0.860294
0.862062
0.863057
0.86352
0.862957
0.862817
0.862444
0.862343
0.862309
0.862147
0.862078
0.861713
0.861475
0.860419
0.859914
0.857419
0.856847
0.851254
0.850969
0.840707
0.827675
0.78635
0.740835
0.682413
0.676473
0.667603
0.571308
0.657942
0.752248
0.796116
0.854836
0.870781
0.877331
0.880721
0.881174
0.88032
0.87855
0.877118
0.875672
0.875212
0.874213
0.874095
0.873131
0.873156
0.872409
0.872914
0.871615
0.872441
0.870633
0.872194
0.869971
0.871709
0.869908
0.872885
0.870378
0.873375
0.86971
0.874259
0.873931
0.88019
0.87246
0.894365
0.891664
0.849104
0.744469
0.490372
0.162468
0.0123346
0.0286643
0.135592
0.218271
0.319276
0.405109
0.466091
0.505093
0.525173
0.535248
0.544967
0.556183
0.565253
0.572904
0.571464
0.573258
0.57056
0.570258
0.569265
0.567613
0.565258
0.562129
0.559286
0.555617
0.552842
0.549007
0.54573
0.541815
0.537157
0.532205
0.526448
0.520419
0.515012
0.509474
0.502915
0.496555
0.48937
0.484221
0.478888
0.473327
0.467293
0.460754
0.454353
0.448668
0.443723
0.439235
0.434342
0.429153
0.423342
0.417007
0.411017
0.405301
0.400236
0.395801
0.39078
0.385393
0.380539
0.377453
0.37487
0.372632
0.369709
0.367284
0.36415
0.360402
0.354975
0.34842
0.339502
0.325203
0.302098
0.275513
0.260776
0.248716
0.230481
0.21818
0.22376
0.228394
0.213152
0.187122
0.17639
0.166245
0.155131
0.144376
0.133684
0.122916
0.112125
0.101108
0.0900864
0.0789109
0.0679228
0.0570081
0.0462602
0.0355578
0.0256322
0.0172144
0.0110037
0.00748015
0.00721127
0.0106596
0.0185361
0.0315828
0.0505312
0.0759236
0.108135
0.147248
0.192849
0.24414
0.299719
0.357581
0.415761
0.472111
0.525249
0.574183
0.61884
0.658755
0.694403
0.725504
0.752797
0.775705
0.795337
0.811173
0.824338
0.834173
0.841943
0.84748
0.852355
0.855568
0.858608
0.860133
0.861057
0.861452
0.861589
0.861217
0.861038
0.860984
0.86077
0.860711
0.860302
0.860101
0.859058
0.858624
0.856288
0.856276
0.850965
0.851874
0.843807
0.831505
0.797866
0.766746
0.704735
0.693708
0.681791
0.591006
0.620104
0.71388
0.744247
0.825519
0.857847
0.866718
0.875123
0.879584
0.880467
0.879723
0.878402
0.877079
0.876408
0.875501
0.875164