/*--------------------------------*- C++ -*----------------------------------*\
| =========                 |                                                 |
| \\      /  F ield         | OpenFOAM: The Open Source CFD Toolbox           |
|  \\    /   O peration     | Version:  2212                                  |
|   \\  /    A nd           | Website:  www.openfoam.com                      |
|    \\/     M anipulation  |                                                 |
\*---------------------------------------------------------------------------*/
FoamFile
{
    version     2.0;
    format      ascii;
    arch        "LSB;label=32;scalar=64";
    class       volScalarField;
    location    "5000";
    object      theta2_Scaled_;
}
// * * * * * * * * * * * * * * * * * * * * * * * * * * * * * * * * * * * * * //

dimensions      [0 0 0 0 0 0 0];

internalField   nonuniform List<scalar> 
10368
(
-0.000931276
-0.000953687
-0.000933201
-0.00090594
-0.000887322
-0.000863835
-0.000841478
-0.000806725
-0.000763369
-0.000694961
-0.000617772
-0.000506769
-0.000400865
-0.000272419
-0.000167688
-6.95257e-05
-3.09604e-05
-4.37511e-08
-2.47665e-07
-7.8569e-05
-0.000405748
-0.00124679
-0.00234159
-0.00309934
-0.00334256
-0.00356178
-0.00369471
-0.0035666
-0.00332522
-0.00313246
-0.00296304
-0.00284115
-0.00274252
-0.00268292
-0.00259967
-0.00253311
-0.00244398
-0.00237861
-0.00228549
-0.00221596
-0.00210894
-0.00203122
-0.00193412
-0.00185601
-0.00175696
-0.00166934
-0.00156465
-0.0014593
-0.0013162
-0.00118807
-0.00104893
-0.000911732
-0.000750176
-0.000562059
-0.000380166
-0.000236478
-0.000100752
-8.84443e-06
-6.28728e-06
-1.88264e-05
-1.47003e-05
-9.87301e-06
-6.94721e-06
-5.50923e-06
-4.55328e-06
-2.5481e-06
-1.24689e-06
-7.64227e-07
-6.33079e-07
-6.45571e-07
-6.96641e-07
-8.41122e-07
-1.0321e-06
-1.21177e-06
-1.38634e-06
-1.56964e-06
-1.81134e-06
-2.07855e-06
-2.41355e-06
-2.75896e-06
-3.10597e-06
-3.47966e-06
-3.8895e-06
-4.34176e-06
-4.82539e-06
-5.35161e-06
-5.90573e-06
-6.50714e-06
-7.14157e-06
-7.81403e-06
-8.57538e-06
-9.40394e-06
-1.03291e-05
-1.13731e-05
-1.24804e-05
-1.36177e-05
-1.48499e-05
-1.6174e-05
-1.76718e-05
-1.92422e-05
-2.08141e-05
-2.24766e-05
-2.42259e-05
-2.61283e-05
-2.8188e-05
-3.03764e-05
-3.2656e-05
-3.49823e-05
-3.73626e-05
-3.98754e-05
-4.25255e-05
-4.53787e-05
-4.84372e-05
-5.16273e-05
-5.49214e-05
-5.82084e-05
-6.14561e-05
-6.477e-05
-6.8269e-05
-7.17777e-05
-7.50318e-05
-7.7956e-05
-8.07562e-05
-8.34624e-05
-8.60282e-05
-8.85334e-05
-9.11068e-05
-9.4038e-05
-9.73275e-05
-0.000101179
-0.000106106
-0.000113167
-0.000122656
-0.000132033
-0.000138898
-0.000146622
-0.000155754
-0.000158793
-0.000155609
-0.00015811
-0.000167754
-0.00017308
-0.000178255
-0.000182609
-0.00018655
-0.000189968
-0.000192926
-0.000195272
-0.000196962
-0.000197815
-0.000197813
-0.000196548
-0.00019413
-0.000190996
-0.000187499
-0.000182813
-0.000175812
-0.000165
-0.000149901
-0.000131069
-0.000109194
-8.54601e-05
-6.09782e-05
-3.76866e-05
-1.78014e-05
-4.19881e-06
-1.34004e-07
-9.00039e-06
-3.3663e-05
-7.57135e-05
-0.000134458
-0.000206704
-0.000287004
-0.000369928
-0.00044915
-0.000520807
-0.000581517
-0.000632903
-0.000672363
-0.000704081
-0.000725277
-0.000742797
-0.000751852
-0.000760897
-0.00076183
-0.000765698
-0.000761153
-0.000761803
-0.000753626
-0.000752609
-0.000742198
-0.000743851
-0.0310698
-0.0318241
-0.0311686
-0.0302921
-0.0296933
-0.0289385
-0.0282241
-0.0271123
-0.0257299
-0.0235312
-0.0210477
-0.0174257
-0.0139476
-0.00964435
-0.00608342
-0.00263584
-0.00120259
-1.13792e-05
-6.47789e-07
-0.00266219
-0.0127989
-0.0375441
-0.068094
-0.0893116
-0.0974357
-0.103874
-0.107847
-0.105614
-0.100081
-0.0952699
-0.0908425
-0.0875732
-0.0848525
-0.08321
-0.0809309
-0.0791207
-0.0766498
-0.074842
-0.0722211
-0.0702808
-0.0672524
-0.0650354
-0.062224
-0.0599724
-0.0570779
-0.0545311
-0.0514336
-0.0483633
-0.04412
-0.0402589
-0.0359939
-0.0317502
-0.0267078
-0.0207205
-0.014665
-0.00963229
-0.00463858
-0.000727709
-5.41705e-05
-0.000451101
-0.000422937
-0.000309184
-0.000224912
-0.000179942
-0.000148319
-8.37692e-05
-4.20555e-05
-2.63433e-05
-2.20443e-05
-2.26034e-05
-2.45049e-05
-2.95509e-05
-3.61813e-05
-4.24077e-05
-4.84873e-05
-5.49406e-05
-6.33661e-05
-7.27148e-05
-8.42902e-05
-9.62458e-05
-0.000108332
-0.000121366
-0.000135664
-0.000151422
-0.000168302
-0.000186653
-0.000206034
-0.000227055
-0.000249294
-0.000272962
-0.000299638
-0.000328688
-0.00036103
-0.000397298
-0.000435772
-0.000475453
-0.000518351
-0.000564438
-0.00061613
-0.00067029
-0.000724748
-0.000782269
-0.000842838
-0.000908492
-0.00097932
-0.0010544
-0.00113249
-0.00121229
-0.00129408
-0.00138032
-0.00147122
-0.00156873
-0.00167283
-0.00178115
-0.00189267
-0.00200404
-0.00211429
-0.00222668
-0.00234439
-0.002462
-0.00257144
-0.00267088
-0.00276621
-0.00285877
-0.00294717
-0.00303436
-0.00312433
-0.00322616
-0.00334022
-0.00347345
-0.00364147
-0.00387342
-0.00418194
-0.00448562
-0.00471026
-0.00495926
-0.00524102
-0.00533872
-0.00525792
-0.00533974
-0.00564302
-0.0058121
-0.00597503
-0.00611175
-0.00623438
-0.00633953
-0.00642892
-0.00649767
-0.00654403
-0.00656256
-0.00655205
-0.0064997
-0.00640905
-0.00629373
-0.00616524
-0.00599678
-0.00575163
-0.00538214
-0.00487359
-0.00424409
-0.00351754
-0.0027334
-0.00192929
-0.00117017
-0.000530983
-0.000108733
-1.29998e-05
-0.000357112
-0.00123511
-0.00269626
-0.00471102
-0.00716611
-0.00987409
-0.012652
-0.015291
-0.0176682
-0.0196757
-0.0213706
-0.0226705
-0.0237143
-0.0244119
-0.024988
-0.0252865
-0.0255838
-0.0256157
-0.0257429
-0.0255952
-0.0256167
-0.0253498
-0.0253164
-0.0249765
-0.0250318
-0.219813
-0.225488
-0.221955
-0.217162
-0.213856
-0.209655
-0.205662
-0.199366
-0.191437
-0.178425
-0.163251
-0.139857
-0.1161
-0.084355
-0.0560541
-0.0260908
-0.0123476
-0.000291185
-1.91089e-05
-0.0236811
-0.0984135
-0.238051
-0.361868
-0.429157
-0.454179
-0.47102
-0.480955
-0.477751
-0.466239
-0.455092
-0.44412
-0.435617
-0.428212
-0.423678
-0.417315
-0.412213
-0.404997
-0.399643
-0.391601
-0.385588
-0.375856
-0.36852
-0.358862
-0.350984
-0.340465
-0.331019
-0.318998
-0.30691
-0.289269
-0.272276
-0.252326
-0.231329
-0.204783
-0.170471
-0.131229
-0.0941062
-0.0523866
-0.0123408
-1.15716e-06
-0.00259655
-0.00316279
-0.00256493
-0.00193906
-0.00156743
-0.00128884
-0.000735499
-0.000379701
-0.000243429
-0.000205876
-0.000212306
-0.000231254
-0.00027851
-0.000340227
-0.000398063
-0.000454813
-0.000515716
-0.000594425
-0.000682061
-0.000789175
-0.000899986
-0.00101271
-0.00113442
-0.00126793
-0.00141485
-0.00157245
-0.00174358
-0.00192482
-0.00212118
-0.00232947
-0.00255192
-0.0028014
-0.00307313
-0.00337455
-0.00371027
-0.00406618
-0.00443456
-0.00483165
-0.00525775
-0.00573115
-0.00622643
-0.00672625
-0.00725293
-0.00780733
-0.0084056
-0.00904789
-0.00972627
-0.0104299
-0.0111489
-0.0118862
-0.0126614
-0.0134766
-0.0143466
-0.0152698
-0.0162264
-0.0172065
-0.0181843
-0.0191524
-0.0201362
-0.021156
-0.0221693
-0.0231139
-0.0239802
-0.0248105
-0.0256192
-0.0263959
-0.0271684
-0.0279673
-0.0288648
-0.029866
-0.0310296
-0.032471
-0.0343768
-0.0368927
-0.0393217
-0.0411398
-0.0431123
-0.0452287
-0.0460023
-0.0455519
-0.0462038
-0.0485096
-0.0498107
-0.0510456
-0.0520755
-0.0529866
-0.0537542
-0.0543895
-0.0548556
-0.0551364
-0.055195
-0.0550129
-0.0544969
-0.0536726
-0.0526402
-0.0514872
-0.0500024
-0.0478932
-0.0447838
-0.0405486
-0.03531
-0.0292476
-0.0226722
-0.0158968
-0.00948566
-0.00412124
-0.000701922
-0.000240854
-0.0037408
-0.0119276
-0.0249808
-0.0422638
-0.0624234
-0.0836511
-0.104431
-0.123319
-0.13968
-0.153043
-0.164015
-0.172253
-0.178757
-0.183056
-0.18657
-0.188389
-0.190184
-0.190391
-0.191157
-0.190289
-0.190421
-0.188836
-0.188637
-0.186608
-0.186948
-0.533882
-0.545751
-0.541564
-0.53575
-0.531675
-0.526413
-0.521343
-0.513158
-0.502557
-0.484221
-0.461421
-0.42241
-0.377532
-0.306207
-0.228656
-0.124414
-0.064156
-0.00290537
-0.000689225
-0.103645
-0.317065
-0.542301
-0.662761
-0.710798
-0.726965
-0.736336
-0.741533
-0.740095
-0.733963
-0.727773
-0.721565
-0.716656
-0.712287
-0.709613
-0.705817
-0.70276
-0.698311
-0.694994
-0.689862
-0.68602
-0.679572
-0.674615
-0.667866
-0.662286
-0.654552
-0.647474
-0.638056
-0.628435
-0.613515
-0.598246
-0.578999
-0.557245
-0.527258
-0.48327
-0.422309
-0.349825
-0.243313
-0.0888742
-0.00331891
-0.0064436
-0.0119708
-0.0110973
-0.0087944
-0.0072032
-0.0059156
-0.00341987
-0.00182264
-0.00119887
-0.00102564
-0.00106411
-0.00116466
-0.0014005
-0.00170647
-0.00199244
-0.00227436
-0.00258021
-0.00297116
-0.00340766
-0.00393369
-0.00447839
-0.00503567
-0.0056376
-0.0062973
-0.00702136
-0.00779834
-0.00864003
-0.00953272
-0.0104975
-0.0115222
-0.0126185
-0.0138399
-0.0151675
-0.0166315
-0.018247
-0.0199546
-0.0217234
-0.0236192
-0.0256444
-0.0278659
-0.0301788
-0.0325132
-0.0349584
-0.0375211
-0.0402629
-0.0431794
-0.0462346
-0.0493796
-0.0525787
-0.0558431
-0.0592489
-0.062803
-0.0665538
-0.070487
-0.0745193
-0.0786056
-0.0826523
-0.0866332
-0.0906397
-0.0947229
-0.0987322
-0.102453
-0.105878
-0.109139
-0.112309
-0.115353
-0.118389
-0.121518
-0.124988
-0.12882
-0.133219
-0.138526
-0.145157
-0.153881
-0.16184
-0.167865
-0.174173
-0.180479
-0.182902
-0.182068
-0.184106
-0.190925
-0.194791
-0.198355
-0.201271
-0.203779
-0.205815
-0.207408
-0.208449
-0.208897
-0.208648
-0.207614
-0.205538
-0.202478
-0.198694
-0.194411
-0.188968
-0.181425
-0.170547
-0.15577
-0.137187
-0.115089
-0.0902988
-0.0638163
-0.0379067
-0.0157982
-0.00208439
-0.0019489
-0.0197171
-0.0566491
-0.10966
-0.171801
-0.235191
-0.293456
-0.343634
-0.384359
-0.416431
-0.440688
-0.459405
-0.472825
-0.483033
-0.489635
-0.494905
-0.497638
-0.500268
-0.500632
-0.501752
-0.50058
-0.500784
-0.498589
-0.498314
-0.495465
-0.49596
-0.731866
-0.739597
-0.73736
-0.734186
-0.731951
-0.729034
-0.726195
-0.721546
-0.715419
-0.704488
-0.690357
-0.664425
-0.631709
-0.571138
-0.489704
-0.336917
-0.206613
-0.0175168
-0.00689294
-0.271189
-0.55549
-0.727719
-0.798228
-0.821565
-0.828528
-0.831878
-0.833487
-0.83237
-0.829023
-0.825839
-0.822838
-0.820533
-0.818528
-0.817351
-0.815649
-0.814294
-0.812278
-0.810811
-0.808527
-0.806872
-0.803975
-0.801779
-0.798727
-0.796243
-0.792712
-0.789504
-0.785131
-0.780741
-0.773636
-0.766254
-0.756701
-0.745727
-0.730211
-0.706201
-0.669277
-0.618833
-0.527337
-0.311744
-0.0441145
-0.0068128
-0.0296757
-0.0330191
-0.0278041
-0.0231975
-0.0190837
-0.0112356
-0.00622229
-0.00421545
-0.00365289
-0.00381468
-0.00419512
-0.00503383
-0.0061136
-0.00711842
-0.0081128
-0.00920244
-0.0105774
-0.0121142
-0.0139353
-0.0158191
-0.0177537
-0.0198392
-0.0221166
-0.0246026
-0.0272628
-0.0301282
-0.0331606
-0.0364175
-0.0398669
-0.0435469
-0.0475997
-0.0519723
-0.0567371
-0.0619141
-0.0673346
-0.0729152
-0.078819
-0.085048
-0.0917395
-0.0986167
-0.105498
-0.1126
-0.119943
-0.127659
-0.135712
-0.143993
-0.152367
-0.160758
-0.169188
-0.177823
-0.186664
-0.195789
-0.205135
-0.214503
-0.223782
-0.232798
-0.241507
-0.250087
-0.25859
-0.266747
-0.2742
-0.281006
-0.287385
-0.293511
-0.299338
-0.30511
-0.31099
-0.317386
-0.324325
-0.332125
-0.34121
-0.351732
-0.365874
-0.377243
-0.386016
-0.394767
-0.402698
-0.405707
-0.405132
-0.407769
-0.416179
-0.420793
-0.424836
-0.427962
-0.430452
-0.432239
-0.433349
-0.433618
-0.433065
-0.431454
-0.428672
-0.424371
-0.418577
-0.411495
-0.403261
-0.392902
-0.379021
-0.359684
-0.333619
-0.300008
-0.258097
-0.208091
-0.15077
-0.0905159
-0.036244
-0.00321656
-0.00894935
-0.0628694
-0.156454
-0.267448
-0.373707
-0.463123
-0.53266
-0.584879
-0.622934
-0.650503
-0.670072
-0.684414
-0.694349
-0.70166
-0.706341
-0.709968
-0.711899
-0.713668
-0.714018
-0.714775
-0.714153
-0.714307
-0.713057
-0.712903
-0.711244
-0.711551
-0.815707
-0.818883
-0.817882
-0.816402
-0.81537
-0.81401
-0.812668
-0.810451
-0.807491
-0.80216
-0.795183
-0.782087
-0.765092
-0.731744
-0.68244
-0.567146
-0.427654
-0.0739186
-0.0386851
-0.461775
-0.696822
-0.805111
-0.851594
-0.863371
-0.866032
-0.866633
-0.866575
-0.865295
-0.862648
-0.860334
-0.858379
-0.85697
-0.855814
-0.855203
-0.85428
-0.853566
-0.852458
-0.851705
-0.850555
-0.849799
-0.848334
-0.847283
-0.845769
-0.844603
-0.842863
-0.841335
-0.839172
-0.837126
-0.83354
-0.829845
-0.825017
-0.819709
-0.812327
-0.8008
-0.782434
-0.756994
-0.709727
-0.568755
-0.211442
-0.000194513
-0.0518424
-0.0755236
-0.0689602
-0.0591408
-0.0490354
-0.0296842
-0.0172613
-0.0121168
-0.0106568
-0.0112064
-0.0123782
-0.0148028
-0.017887
-0.0207399
-0.0235647
-0.0266829
-0.030552
-0.0348619
-0.0398576
-0.0449949
-0.0502637
-0.0559018
-0.0619986
-0.0685734
-0.0755402
-0.0829451
-0.0907026
-0.0989121
-0.107507
-0.11656
-0.126318
-0.136654
-0.147655
-0.159283
-0.171197
-0.183231
-0.195637
-0.208391
-0.221634
-0.234891
-0.247861
-0.260883
-0.273995
-0.287356
-0.300861
-0.314329
-0.32754
-0.340424
-0.353026
-0.365565
-0.378031
-0.390486
-0.402828
-0.414805
-0.426295
-0.43715
-0.447356
-0.457127
-0.46647
-0.475153
-0.482884
-0.489828
-0.496182
-0.502172
-0.507774
-0.513266
-0.518788
-0.524701
-0.531017
-0.538005
-0.545915
-0.554414
-0.566525
-0.574323
-0.580648
-0.586633
-0.591159
-0.592318
-0.591796
-0.593337
-0.598241
-0.600438
-0.60209
-0.602985
-0.603291
-0.602953
-0.601945
-0.60012
-0.597563
-0.593881
-0.589039
-0.582688
-0.574768
-0.565207
-0.553779
-0.539547
-0.521221
-0.496953
-0.465197
-0.424046
-0.371138
-0.305032
-0.224751
-0.134947
-0.0504781
-0.00206823
-0.0244639
-0.124233
-0.266137
-0.40614
-0.520598
-0.606002
-0.666989
-0.710123
-0.740236
-0.761309
-0.775849
-0.786186
-0.793218
-0.798234
-0.801445
-0.803834
-0.805175
-0.806308
-0.806657
-0.807145
-0.806941
-0.807059
-0.806529
-0.806466
-0.805723
-0.805881
-0.849319
-0.850932
-0.85049
-0.84976
-0.849268
-0.848603
-0.847928
-0.846792
-0.845242
-0.84243
-0.838724
-0.831695
-0.822699
-0.805017
-0.778583
-0.71192
-0.618473
-0.215496
-0.133968
-0.586376
-0.755378
-0.829068
-0.875634
-0.88106
-0.8817
-0.880967
-0.880084
-0.878715
-0.876323
-0.874286
-0.872707
-0.871644
-0.870822
-0.870457
-0.869868
-0.869446
-0.868725
-0.868298
-0.867551
-0.867156
-0.866204
-0.865591
-0.864628
-0.863977
-0.862888
-0.862012
-0.860645
-0.859534
-0.857228
-0.85489
-0.851765
-0.848695
-0.844599
-0.83819
-0.827709
-0.813753
-0.790097
-0.715847
-0.463625
-0.0297106
-0.0596594
-0.137122
-0.139849
-0.125037
-0.105587
-0.0667217
-0.04139
-0.03038
-0.0272006
-0.0288086
-0.0319197
-0.0379544
-0.0454417
-0.0523283
-0.0590896
-0.0665625
-0.0756091
-0.0855635
-0.0967382
-0.10805
-0.119519
-0.131572
-0.144329
-0.157757
-0.171668
-0.186068
-0.200801
-0.215951
-0.23141
-0.247252
-0.263725
-0.280596
-0.297877
-0.315395
-0.332711
-0.349633
-0.366429
-0.383049
-0.39956
-0.415502
-0.430606
-0.44526
-0.459541
-0.473591
-0.487297
-0.500508
-0.513048
-0.524938
-0.536255
-0.547216
-0.557815
-0.568095
-0.577976
-0.58727
-0.595918
-0.603868
-0.611144
-0.617925
-0.624163
-0.629735
-0.634498
-0.638676
-0.642366
-0.645758
-0.648847
-0.651865
-0.654893
-0.658157
-0.661657
-0.665565
-0.669979
-0.674588
-0.681499
-0.684094
-0.686581
-0.688676
-0.688987
-0.687684
-0.68665
-0.68686
-0.687559
-0.686883
-0.685749
-0.684073
-0.681886
-0.679123
-0.675716
-0.671595
-0.666695
-0.660667
-0.65348
-0.64478
-0.634434
-0.622079
-0.607096
-0.588641
-0.56567
-0.5367
-0.500357
-0.454251
-0.395336
-0.321773
-0.232417
-0.133044
-0.042822
-0.000101842
-0.0423408
-0.164879
-0.319144
-0.460516
-0.571559
-0.653156
-0.71137
-0.752723
-0.781727
-0.802021
-0.815957
-0.825714
-0.832286
-0.836841
-0.839886
-0.842018
-0.843273
-0.844231
-0.844649
-0.845059
-0.845076
-0.845191
-0.845015
-0.844997
-0.844692
-0.844782
-0.86415
-0.865373
-0.865185
-0.864775
-0.864518
-0.864154
-0.863763
-0.863081
-0.862116
-0.860335
-0.857969
-0.853376
-0.847783
-0.836959
-0.821591
-0.781993
-0.727788
-0.414789
-0.285455
-0.636651
-0.767542
-0.821994
-0.885966
-0.888685
-0.888458
-0.886994
-0.885635
-0.884237
-0.882003
-0.880019
-0.878556
-0.877621
-0.876924
-0.876678
-0.876255
-0.875998
-0.875468
-0.875228
-0.874651
-0.874453
-0.873734
-0.873343
-0.872623
-0.872244
-0.871451
-0.870931
-0.869921
-0.869339
-0.867686
-0.866058
-0.863753
-0.861547
-0.858773
-0.854509
-0.847197
-0.837881
-0.824895
-0.782192
-0.634806
-0.189898
-0.0311108
-0.195032
-0.23258
-0.220855
-0.192656
-0.129534
-0.0876012
-0.0681279
-0.0623707
-0.0665007
-0.0736882
-0.0867456
-0.102115
-0.116231
-0.12972
-0.144478
-0.16168
-0.180104
-0.199827
-0.21918
-0.238278
-0.257686
-0.277481
-0.297507
-0.317476
-0.337314
-0.356851
-0.376111
-0.395032
-0.413673
-0.432197
-0.450378
-0.468173
-0.485377
-0.501719
-0.517133
-0.531874
-0.545929
-0.55933
-0.571858
-0.583398
-0.594308
-0.604693
-0.614665
-0.624139
-0.633048
-0.64129
-0.648961
-0.656139
-0.662995
-0.669506
-0.675696
-0.681501
-0.686789
-0.691547
-0.695776
-0.699505
-0.702863
-0.705739
-0.708068
-0.7098
-0.711197
-0.712267
-0.71315
-0.713842
-0.714539
-0.715274
-0.716176
-0.717223
-0.718521
-0.720088
-0.722244
-0.724457
-0.723062
-0.722493
-0.721492
-0.718237
-0.71475
-0.713035
-0.71229
-0.709307
-0.7062
-0.702565
-0.69853
-0.693965
-0.688795
-0.683044
-0.67648
-0.668979
-0.660296
-0.650318
-0.638689
-0.625217
-0.60931
-0.59003
-0.566623
-0.53827
-0.503857
-0.462354
-0.41145
-0.348512
-0.272945
-0.185821
-0.0957735
-0.0232941
-0.00119965
-0.0545314
-0.173365
-0.317862
-0.452598
-0.562215
-0.645969
-0.708003
-0.753585
-0.786517
-0.8101
-0.826571
-0.838175
-0.846039
-0.851594
-0.855645
-0.858293
-0.859859
-0.860956
-0.861521
-0.861973
-0.862128
-0.862264
-0.862266
-0.862271
-0.862175
-0.86224
-0.870491
-0.871674
-0.871622
-0.871386
-0.871259
-0.871056
-0.870819
-0.870379
-0.869731
-0.868491
-0.866853
-0.863536
-0.859458
-0.851192
-0.840746
-0.813567
-0.780032
-0.572723
-0.418732
-0.642563
-0.754091
-0.797029
-0.880684
-0.891266
-0.891099
-0.889239
-0.887577
-0.886126
-0.883999
-0.881875
-0.880306
-0.879324
-0.878587
-0.878367
-0.877993
-0.877824
-0.877354
-0.877216
-0.876715
-0.876657
-0.876069
-0.875827
-0.875226
-0.875037
-0.874403
-0.874146
-0.873321
-0.873142
-0.871945
-0.870839
-0.869078
-0.867406
-0.86545
-0.862745
-0.857103
-0.849525
-0.842085
-0.814783
-0.720193
-0.406353
-3.68391e-05
-0.207855
-0.315011
-0.323993
-0.295902
-0.214961
-0.162287
-0.135984
-0.128048
-0.137212
-0.15127
-0.175005
-0.200367
-0.223943
-0.245168
-0.267818
-0.292832
-0.318475
-0.344234
-0.368358
-0.391194
-0.413372
-0.43493
-0.455695
-0.475473
-0.494211
-0.511908
-0.528588
-0.544374
-0.559348
-0.573639
-0.587145
-0.59986
-0.611656
-0.622507
-0.632477
-0.641788
-0.650427
-0.658402
-0.665683
-0.672249
-0.678398
-0.6842
-0.689724
-0.69488
-0.699639
-0.703922
-0.70786
-0.711502
-0.714983
-0.718235
-0.721259
-0.723991
-0.726302
-0.728204
-0.729724
-0.73087
-0.731763
-0.732217
-0.732189
-0.731665
-0.730998
-0.730109
-0.729128
-0.728024
-0.727008
-0.72606
-0.725265
-0.724553
-0.72398
-0.723477
-0.725034
-0.722479
-0.718101
-0.715128
-0.711572
-0.705037
-0.699794
-0.697499
-0.696174
-0.68958
-0.684418
-0.678467
-0.672245
-0.665413
-0.658044
-0.650025
-0.640972
-0.630936
-0.619584
-0.606779
-0.592169
-0.575524
-0.556113
-0.532803
-0.504983
-0.472074
-0.433366
-0.388292
-0.335083
-0.272278
-0.201178
-0.12541
-0.0551221
-0.00793917
-0.00589816
-0.062044
-0.167576
-0.295893
-0.421087
-0.52867
-0.61516
-0.682183
-0.733523
-0.772139
-0.800865
-0.821634
-0.836676
-0.847132
-0.85482
-0.860702
-0.864503
-0.866725
-0.868177
-0.86897
-0.869534
-0.869802
-0.869978
-0.87009
-0.87011
-0.870139
-0.87019
-0.872136
-0.873282
-0.873295
-0.873181
-0.873138
-0.87304
-0.872905
-0.872621
-0.872182
-0.871285
-0.87014
-0.86764
-0.864515
-0.857602
-0.84906
-0.827519
-0.80368
-0.66048
-0.5032
-0.630181
-0.726992
-0.767572
-0.850723
-0.890619
-0.891732
-0.889822
-0.888014
-0.886501
-0.884593
-0.882226
-0.880395
-0.879234
-0.878325
-0.878051
-0.877642
-0.877515
-0.87702
-0.876938
-0.876418
-0.876454
-0.875901
-0.875748
-0.875149
-0.875088
-0.87448
-0.874426
-0.873623
-0.873748
-0.872833
-0.872106
-0.870649
-0.869446
-0.868127
-0.8669
-0.862976
-0.856398
-0.852394
-0.834418
-0.766403
-0.556568
-0.0631317
-0.147347
-0.347121
-0.39591
-0.380494
-0.30046
-0.257056
-0.235066
-0.229024
-0.245967
-0.268274
-0.302187
-0.333622
-0.363947
-0.388844
-0.414394
-0.440891
-0.46672
-0.4909
-0.512388
-0.531832
-0.549903
-0.566666
-0.582079
-0.596153
-0.608919
-0.620558
-0.631089
-0.640791
-0.649724
-0.657997
-0.665568
-0.67245
-0.678548
-0.68398
-0.688856
-0.693355
-0.697405
-0.700976
-0.704138
-0.706872
-0.709466
-0.711923
-0.714287
-0.71643
-0.718343
-0.71992
-0.721332
-0.72259
-0.723837
-0.724931
-0.725868
-0.726583
-0.726903
-0.726879
-0.726549
-0.725884
-0.725057
-0.723789
-0.722058
-0.719823
-0.717619
-0.715255
-0.712898
-0.710448
-0.708182
-0.705998
-0.703985
-0.701973
-0.699967
-0.698472
-0.699782
-0.692145
-0.685434
-0.680462
-0.674664
-0.664895
-0.65873
-0.655927
-0.65443
-0.644106
-0.637278
-0.629231
-0.620995
-0.612375
-0.60311
-0.592955
-0.581798
-0.569556
-0.555913
-0.540698
-0.523601
-0.504372
-0.482232
-0.455988
-0.425242
-0.389713
-0.349167
-0.30359
-0.252016
-0.194337
-0.133329
-0.0739318
-0.0254789
-0.000845613
-0.0130882
-0.0683932
-0.160487
-0.272653
-0.386714
-0.489883
-0.576932
-0.647315
-0.703369
-0.747217
-0.781199
-0.806818
-0.82612
-0.840068
-0.850315
-0.858269
-0.864029
-0.867526
-0.869745
-0.870967
-0.871773
-0.872194
-0.872453
-0.872657
-0.872696
-0.872819
-0.872863
-0.871537
-0.872466
-0.87245
-0.872416
-0.872418
-0.87237
-0.872287
-0.872073
-0.87174
-0.870984
-0.870105
-0.867958
-0.865517
-0.859612
-0.852175
-0.833339
-0.814094
-0.704881
-0.556473
-0.614179
-0.694705
-0.73441
-0.791775
-0.88597
-0.89055
-0.889392
-0.887715
-0.886248
-0.884919
-0.882372
-0.880217
-0.878795
-0.877618
-0.877217
-0.876706
-0.876592
-0.87602
-0.875971
-0.875366
-0.87546
-0.874877
-0.874785
-0.8741
-0.874135
-0.873449
-0.873578
-0.872677
-0.87305
-0.872301
-0.871915
-0.870602
-0.869768
-0.868782
-0.868726
-0.866645
-0.861284
-0.860065
-0.849169
-0.796845
-0.647511
-0.210972
-0.0450396
-0.305826
-0.405121
-0.414536
-0.354395
-0.342994
-0.342211
-0.346072
-0.371213
-0.400032
-0.43659
-0.465595
-0.49515
-0.517536
-0.539149
-0.560301
-0.580114
-0.597409
-0.611972
-0.624576
-0.635886
-0.645912
-0.654696
-0.662365
-0.668959
-0.674751
-0.679682
-0.684126
-0.688053
-0.69156
-0.694567
-0.697094
-0.699022
-0.700562
-0.70182
-0.702971
-0.703859
-0.704416
-0.704801
-0.704909
-0.705107
-0.70531
-0.705582
-0.705727
-0.705775
-0.705609
-0.705372
-0.705093
-0.70486
-0.704498
-0.70401
-0.70325
-0.702062
-0.700598
-0.698849
-0.696889
-0.694797
-0.692293
-0.689295
-0.685894
-0.682548
-0.679076
-0.675741
-0.672294
-0.669147
-0.666057
-0.663182
-0.660193
-0.657579
-0.656337
-0.655012
-0.643387
-0.634755
-0.628103
-0.620363
-0.607397
-0.60135
-0.597927
-0.596771
-0.582578
-0.57448
-0.56452
-0.554618
-0.544813
-0.533719
-0.521908
-0.509077
-0.495108
-0.479721
-0.462725
-0.443891
-0.422968
-0.399218
-0.371501
-0.339708
-0.303901
-0.264357
-0.221582
-0.175395
-0.126729
-0.0789458
-0.036936
-0.00801333
-0.000650652
-0.0221886
-0.0754503
-0.156243
-0.254155
-0.356748
-0.453545
-0.538783
-0.610402
-0.669431
-0.717185
-0.755547
-0.785623
-0.809223
-0.827024
-0.840312
-0.850086
-0.858078
-0.863569
-0.867301
-0.869424
-0.870765
-0.871468
-0.871922
-0.872232
-0.872309
-0.872516
-0.872559
-0.870311
-0.870649
-0.870507
-0.870532
-0.870548
-0.87051
-0.870443
-0.870237
-0.869942
-0.869184
-0.868422
-0.866306
-0.864268
-0.858773
-0.85267
-0.835461
-0.818518
-0.729556
-0.595817
-0.601065
-0.662878
-0.699867
-0.704966
-0.872063
-0.885677
-0.887709
-0.886637
-0.885148
-0.88511
-0.882722
-0.880332
-0.878642
-0.877154
-0.876561
-0.87589
-0.875766
-0.875088
-0.875061
-0.87434
-0.874474
-0.873837
-0.873815
-0.872996
-0.873134
-0.872301
-0.87264
-0.871566
-0.872175
-0.871518
-0.871534
-0.870283
-0.869815
-0.868877
-0.869718
-0.86922
-0.865176
-0.86596
-0.862204
-0.820518
-0.707277
-0.364081
-0.000383376
-0.197319
-0.343082
-0.38562
-0.358967
-0.389643
-0.420322
-0.440614
-0.472699
-0.503985
-0.536211
-0.558191
-0.581215
-0.599348
-0.614562
-0.62872
-0.641705
-0.652095
-0.660154
-0.666652
-0.67227
-0.676868
-0.680504
-0.683345
-0.685391
-0.68699
-0.687946
-0.688765
-0.689258
-0.689572
-0.689506
-0.689111
-0.68822
-0.687142
-0.685937
-0.684836
-0.683598
-0.682104
-0.680657
-0.678965
-0.677729
-0.676431
-0.675303
-0.674031
-0.672753
-0.671413
-0.670004
-0.668765
-0.667519
-0.66609
-0.664536
-0.662464
-0.660019
-0.657373
-0.654375
-0.651486
-0.648383
-0.64504
-0.641037
-0.637011
-0.632869
-0.628783
-0.624749
-0.620705
-0.616852
-0.613241
-0.609798
-0.606344
-0.60376
-0.601805
-0.596753
-0.582319
-0.572124
-0.564031
-0.554545
-0.538874
-0.533411
-0.529446
-0.52881
-0.510855
-0.501757
-0.490081
-0.47931
-0.468254
-0.455838
-0.442824
-0.428823
-0.413699
-0.397239
-0.379243
-0.359604
-0.338085
-0.31406
-0.286542
-0.255739
-0.222052
-0.186199
-0.149045
-0.110977
-0.0734516
-0.039647
-0.0136524
-0.000612022
-0.00575231
-0.0331283
-0.083986
-0.155575
-0.241387
-0.333036
-0.422393
-0.504017
-0.575019
-0.635373
-0.68564
-0.727242
-0.760938
-0.788323
-0.809811
-0.826582
-0.838777
-0.84845
-0.855894
-0.861563
-0.865279
-0.867679
-0.868948
-0.869808
-0.870284
-0.87046
-0.870759
-0.870819
-0.868922
-0.868511
-0.868214
-0.868272
-0.868286
-0.868235
-0.86817
-0.86794
-0.867657
-0.866828
-0.866134
-0.863898
-0.862133
-0.856614
-0.851925
-0.836204
-0.820497
-0.745927
-0.629137
-0.593067
-0.634528
-0.666814
-0.62568
-0.834589
-0.874555
-0.883762
-0.884972
-0.88376
-0.885288
-0.883133
-0.880688
-0.878895
-0.877181
-0.876367
-0.875495
-0.875344
-0.874557
-0.874552
-0.873716
-0.873874
-0.873177
-0.873252
-0.87228
-0.872549
-0.871513
-0.872108
-0.870813
-0.871669
-0.871005
-0.871539
-0.870266
-0.870301
-0.869184
-0.870754
-0.871422
-0.868817
-0.869996
-0.873608
-0.841329
-0.75077
-0.493056
-0.057234
-0.0707245
-0.227643
-0.298611
-0.318943
-0.387777
-0.449562
-0.487579
-0.526385
-0.557639
-0.584843
-0.600812
-0.616292
-0.631081
-0.64212
-0.650893
-0.658986
-0.664541
-0.668021
-0.670195
-0.67193
-0.67286
-0.673047
-0.672681
-0.671699
-0.670576
-0.668905
-0.667418
-0.665669
-0.663969
-0.661897
-0.659744
-0.657107
-0.654192
-0.651304
-0.64872
-0.645964
-0.643195
-0.640315
-0.637477
-0.635411
-0.633105
-0.63101
-0.628594
-0.626119
-0.623743
-0.621381
-0.619398
-0.617369
-0.615074
-0.61262
-0.609464
-0.606106
-0.602554
-0.598609
-0.594975
-0.591051
-0.587035
-0.582225
-0.577705
-0.572994
-0.568885
-0.564271
-0.560034
-0.555632
-0.551821
-0.547973
-0.544352
-0.541045
-0.537168
-0.529377
-0.512539
-0.501096
-0.491745
-0.480413
-0.463276
-0.45842
-0.454361
-0.453381
-0.432477
-0.422503
-0.40973
-0.398629
-0.386416
-0.373286
-0.359612
-0.345076
-0.32951
-0.312808
-0.294768
-0.275431
-0.254581
-0.231761
-0.206196
-0.178383
-0.148985
-0.119008
-0.0894481
-0.0609718
-0.0351234
-0.0144794
-0.00209335
-0.00128453
-0.0152054
-0.0460562
-0.0943734
-0.158368
-0.233961
-0.315559
-0.397095
-0.473896
-0.542817
-0.603094
-0.654644
-0.69843
-0.734868
-0.765339
-0.790051
-0.81011
-0.825445
-0.837244
-0.846195
-0.853376
-0.858774
-0.862835
-0.86514
-0.866762
-0.867551
-0.867954
-0.868387
-0.868498
-0.866959
-0.866402
-0.865988
-0.866028
-0.866032
-0.865953
-0.865884
-0.865615
-0.865339
-0.864413
-0.863776
-0.861379
-0.859913
-0.854246
-0.851003
-0.83685
-0.821871
-0.758808
-0.659494
-0.590389
-0.610709
-0.636451
-0.586745
-0.774983
-0.848706
-0.874665
-0.881804
-0.882256
-0.885413
-0.883806
-0.881447
-0.879558
-0.877579
-0.876544
-0.875498
-0.875327
-0.874488
-0.874526
-0.873626
-0.873794
-0.873051
-0.873262
-0.872152
-0.87259
-0.871315
-0.872218
-0.87067
-0.87181
-0.870991
-0.872186
-0.87076
-0.871521
-0.869974
-0.872218
-0.873406
-0.872749
-0.872425
-0.882764
-0.860343
-0.78602
-0.59307
-0.175512
-0.00249078
-0.0994567
-0.180896
-0.251762
-0.348815
-0.434642
-0.488477
-0.533756
-0.565938
-0.589917
-0.602364
-0.612763
-0.624241
-0.633624
-0.640053
-0.644531
-0.647366
-0.647554
-0.64716
-0.646536
-0.645245
-0.64333
-0.640925
-0.63815
-0.635257
-0.632103
-0.629078
-0.625994
-0.62313
-0.619682
-0.616536
-0.612948
-0.608622
-0.604538
-0.601009
-0.59696
-0.593588
-0.589109
-0.585557
-0.582619
-0.579471
-0.57654
-0.573154
-0.569612
-0.566348
-0.563289
-0.560638
-0.557876
-0.554845
-0.551565
-0.547576
-0.543437
-0.53912
-0.534532
-0.530305
-0.525761
-0.521074
-0.51572
-0.510835
-0.505782
-0.501704
-0.496748
-0.492434
-0.487869
-0.483854
-0.479599
-0.47541
-0.471138
-0.465536
-0.455004
-0.436151
-0.423777
-0.413387
-0.40009
-0.383161
-0.378699
-0.375122
-0.372528
-0.35006
-0.339362
-0.326577
-0.315166
-0.302489
-0.289312
-0.275686
-0.261408
-0.246286
-0.230339
-0.213368
-0.195565
-0.176733
-0.156609
-0.13466
-0.111578
-0.0881661
-0.0655101
-0.0445417
-0.025985
-0.0111842
-0.00199346
-0.0004766
-0.00872189
-0.0285642
-0.0612019
-0.106867
-0.164408
-0.231281
-0.303791
-0.377542
-0.44878
-0.5145
-0.57351
-0.625257
-0.670282
-0.708669
-0.741542
-0.768937
-0.791842
-0.810077
-0.824753
-0.835706
-0.844357
-0.85075
-0.856368
-0.860011
-0.862866
-0.864254
-0.865132
-0.86578
-0.866006
-0.864596
-0.864481
-0.86404
-0.864017
-0.864004
-0.863887
-0.863815
-0.863498
-0.863235
-0.862222
-0.861647
-0.859133
-0.858053
-0.852292
-0.85054
-0.838053
-0.82355
-0.770214
-0.688033
-0.592455
-0.591406
-0.609288
-0.554059
-0.728716
-0.808054
-0.851797
-0.875248
-0.880244
-0.884615
-0.884291
-0.882511
-0.880737
-0.878618
-0.877332
-0.876063
-0.875781
-0.874855
-0.874863
-0.873938
-0.874113
-0.873394
-0.873794
-0.872631
-0.873282
-0.871773
-0.873023
-0.871222
-0.872713
-0.871549
-0.873556
-0.871781
-0.873548
-0.871275
-0.874329
-0.875035
-0.877148
-0.873538
-0.889543
-0.87662
-0.817421
-0.66953
-0.310696
-0.0258435
-0.015036
-0.0722779
-0.175255
-0.29067
-0.39111
-0.45809
-0.508593
-0.542879
-0.564944
-0.575505
-0.584021
-0.593266
-0.600954
-0.607765
-0.608467
-0.61048
-0.607962
-0.606412
-0.604515
-0.602044
-0.599017
-0.595291
-0.591719
-0.587522
-0.583915
-0.579627
-0.575828
-0.572242
-0.567845
-0.563838
-0.559425
-0.554087
-0.549141
-0.544826
-0.539733
-0.535718
-0.529907
-0.52573
-0.521993
-0.518084
-0.514276
-0.510019
-0.505671
-0.501678
-0.497957
-0.494646
-0.491147
-0.487374