/*--------------------------------*- C++ -*----------------------------------*\
| =========                 |                                                 |
| \\      /  F ield         | OpenFOAM: The Open Source CFD Toolbox           |
|  \\    /   O peration     | Version:  2212                                  |
|   \\  /    A nd           | Website:  www.openfoam.com                      |
|    \\/     M anipulation  |                                                 |
\*---------------------------------------------------------------------------*/
FoamFile
{
    version     2.0;
    format      ascii;
    arch        "LSB;label=32;scalar=64";
    class       volScalarField;
    location    "5000";
    object      theta4_Scaled_;
}
// * * * * * * * * * * * * * * * * * * * * * * * * * * * * * * * * * * * * * //

dimensions      [0 0 0 0 0 0 0];

internalField   nonuniform List<scalar> 
10368
(
1.02939e-57
8.91638e-57
1.67333e-56
2.06795e-25
0
-2.06795e-25
1.89265e-53
1.03398e-25
0
0
1.03398e-25
-1.03398e-25
3.07138e-54
-1.03398e-25
0
-5.16988e-26
-1.29247e-26
-5.52574e-53
-7.96546e-59
-2.86037e-41
1.69941e-46
0
-8.15663e-56
0
6.22302e-61
-4.08849e-40
0
-3.03239e-46
6.21463e-46
-3.36788e-50
-1.63213e-40
-1.5392e-46
5.24576e-50
0
1.55575e-61
-4.92314e-41
7.45413e-50
1.35415e-41
1.94469e-62
1.15691e-41
-1.53206e-47
2.25777e-50
1.12569e-45
1.99136e-59
0
-6.07716e-64
0
1.59513e-42
6.0601e-47
-7.30054e-49
1.00454e-41
1.63898e-42
0
0
3.26058e-51
5.58682e-48
-8.06009e-49
-8.66651e-53
-1.71786e-50
-4.37707e-49
4.16997e-44
3.36334e-49
3.70733e-52
1.34545e-44
1.06172e-44
0
2.86796e-45
-1.73578e-52
-2.3144e-50
-4.693e-50
7.60057e-54
-3.07002e-50
3.18618e-58
0
-1.80362e-52
6.31916e-50
0
2.34301e-49
-6.98661e-45
9.72346e-63
2.87201e-44
-3.25861e-49
-9.41601e-52
-1.4202e-44
0
1.84213e-44
2.08815e-44
0
0
0
-3.18951e-44
1.42799e-43
0
0
0
0
-1.17791e-43
6.48426e-44
0
-3.87605e-44
6.32138e-44
7.96546e-59
-6.37237e-58
-5.32075e-44
0
3.11629e-44
-1.99988e-48
1.12666e-51
6.9988e-48
-1.8033e-51
4.36101e-44
0
0
2.1121e-43
5.59343e-44
0
0
-2.43087e-63
0
5.437e-44
5.65849e-44
-1.16307e-51
-2.97002e-52
-3.10619e-52
1.26991e-43
-1.08773e-50
-5.5037e-45
-6.07716e-64
5.80203e-45
-1.10639e-50
-3.0499e-48
-4.0313e-48
-8.52361e-49
7.77877e-62
4.96023e-46
0
-2.20745e-45
6.53454e-51
-5.71318e-54
5.16988e-26
1.03398e-25
-1.69313e-56
5.16988e-26
-2.00248e-51
-1.03398e-25
0
3.70921e-68
-1.40626e-51
1.03398e-25
7.24454e-71
1.03398e-25
0
1.03398e-25
3.19497e-51
1.03398e-25
-4.62386e-51
3.17656e-51
8.61036e-52
-1.48567e-52
-2.81472e-52
0
0
-5.16988e-26
-8.25635e-54
1.9387e-26
-2.48687e-55
7.97671e-56
-6.46235e-27
0
-1.29247e-26
-1.29247e-26
0
-1.61559e-26
-2.8299e-73
2.24737e-54
2.02631e-54
1.7403e-54
5.74329e-54
1.16245e-54
6.86278e-55
1.26858e-54
9.01981e-55
-1.03398e-25
0
1.03398e-25
5.16988e-26
0
-1.55096e-25
0
2.90983e-59
1.03398e-25
-5.16988e-26
4.23516e-22
0
-4.23516e-22
4.23516e-22
4.23516e-22
2.11758e-22
-4.10868e-51
-2.42859e-51
-2.11758e-22
0
0
-7.94093e-23
2.92875e-51
3.00733e-50
2.34612e-50
1.46114e-50
5.11436e-49
1.40843e-50
0
3.4578e-38
3.83152e-39
-6.22695e-38
-1.54415e-37
6.10773e-47
0
-5.32835e-37
0
1.04405e-53
1.72515e-43
-2.93624e-47
-2.16365e-37
-1.32024e-37
0
0
-3.92908e-47
-3.79132e-38
1.86185e-47
2.34487e-39
1.40869e-47
-9.27484e-41
3.58121e-40
6.22302e-61
-4.64719e-43
3.53079e-40
0
2.48921e-60
-7.63265e-41
-6.55281e-40
3.17889e-39
6.26602e-40
5.83806e-39
-6.86889e-40
-8.96929e-48
1.18551e-44
7.71691e-48
8.75795e-40
4.52427e-40
2.14739e-47
-9.2502e-48
-5.01016e-46
-1.54651e-41
5.77174e-41
0
-5.26295e-42
-4.2446e-42
1.10079e-41
-1.15314e-42
0
-1.23453e-42
0
-7.77154e-52
9.60339e-49
5.17075e-42
3.68787e-42
-1.62367e-49
2.10408e-47
-2.1505e-49
1.17246e-41
-1.37404e-42
-7.45385e-52
-2.36245e-43
1.91894e-46
8.49698e-49
-1.13958e-41
1.93438e-48
-7.577e-42
-8.47814e-42
1.12398e-48
-9.26177e-46
2.86886e-46
-4.49556e-41
1.81786e-41
4.49568e-48
-7.71486e-46
-1.70723e-51
-4.67612e-50
2.35189e-41
-2.65473e-41
-4.71843e-49
1.98053e-41
-5.20083e-43
1.62686e-45
7.84179e-41
2.71299e-41
4.96722e-49
-1.27169e-41
1.01958e-56
0
-1.91774e-42
4.07832e-56
8.32608e-42
-1.86873e-48
-1.01958e-56
2.66635e-41
-5.65617e-41
9.49915e-41
1.26215e-45
-4.4649e-49
2.54895e-57
-4.58776e-43
-1.1718e-41
6.22302e-61
5.09789e-57
0
-3.14984e-42
2.54895e-57
-4.36922e-42
-8.93012e-50
1.09963e-42
3.98273e-59
0
7.95729e-43
-2.81554e-46
5.45249e-43
9.45436e-44
-4.29603e-43
7.60399e-43
-9.70784e-46
9.39691e-46
-9.30578e-24
9.92617e-24
1.32349e-23
4.15971e-48
-1.32349e-23
1.57316e-48
-3.13588e-48
-2.64698e-23
0
-2.64698e-23
-2.64698e-23
2.64698e-23
2.64698e-23
-1.43633e-49
-1.07033e-48
3.32016e-47
-2.56911e-47
2.64698e-23
-5.29396e-23
0
2.64698e-23
-2.65928e-51
0
1.32349e-23
0
3.30872e-24
1.15913e-69
5.62091e-53
-1.2505e-53
-3.65505e-53
-4.57529e-53
5.29396e-23
0
6.01933e-53
5.61454e-53
1.05879e-22
0
0
0
0
2.11758e-22
-2.11758e-22
-2.11758e-22
0
0
-7.07475e-74
-2.11758e-22
1.34178e-56
-2.35061e-54
2.11758e-22
2.11758e-22
0
0
0
0
0
1.35525e-20
-1.0876e-50
-5.79563e-70
0
0
-1.35525e-20
0
-6.77626e-21
-6.77626e-21
1.69407e-21
-7.79153e-49
-4.23516e-22
-1.81789e-48
-6.24079e-48
1.63647e-47
-5.22024e-54
-1.48474e-36
-1.1397e-36
4.8548e-36
3.81563e-36
2.3787e-45
-2.54895e-57
2.76913e-35
-1.52145e-41
6.58815e-47
5.15812e-47
-1.44894e-45
5.83983e-36
4.22713e-36
3.00374e-36
5.24102e-42
-4.46144e-47
6.20249e-42
1.59309e-58
-6.31173e-38
1.19405e-45
0
-5.59171e-38
1.99136e-59
0
-9.2126e-39
-3.50294e-46
3.01251e-42
2.27744e-38
0
-5.08799e-38
-5.26016e-38
-1.46162e-37
0
0
1.04405e-53
-1.04405e-53
-2.64752e-38
-1.43558e-38
4.513e-39
8.14039e-43
-9.80594e-41
0
-1.28696e-40
6.23092e-47
1.5965e-44
5.22024e-54
-3.993e-43
-2.47814e-46
-4.79571e-51
7.80146e-41
-9.53326e-52
8.03511e-48
1.02339e-40
-8.81737e-41
-1.05592e-40
-4.74927e-45
-1.43255e-41
6.74335e-45
-1.99146e-40
3.62265e-40
3.03088e-47
5.09789e-57
0
-2.61012e-54
-1.76905e-44
-2.49728e-50
-2.18229e-44
-1.69216e-45
-4.85991e-51
0
2.8657e-39
4.74317e-39
-1.12096e-39
0
-5.81954e-44
7.27127e-50
1.81246e-48
1.05966e-39
5.1559e-45
-2.88931e-47
-6.85854e-40
-6.5253e-55
0
-1.46147e-40
-5.7846e-41
0
0
0
1.69132e-39
1.30889e-39
1.92522e-39
-1.80775e-41
-1.17689e-46
0
-3.35946e-39
5.26877e-39
4.51361e-39
2.91708e-39
-3.95986e-46
-2.6779e-48
0
1.75369e-39
5.50742e-46
9.28122e-40
-7.01353e-46
1.4144e-39
9.97566e-40
0
0
-2.90789e-40
-4.57567e-42
6.2794e-44
-1.65657e-43
4.19215e-41
-1.53013e-41
-3.59707e-43
1.69584e-41
1.60068e-41
2.48992e-41
5.8644e-42
9.47957e-47
3.44107e-22
-6.06443e-48
-4.23516e-22
8.47033e-22
4.23516e-22
-4.23516e-22
-6.16832e-48
-8.47033e-22
8.47033e-22
-2.71785e-48
-8.47033e-22
-8.94663e-47
-6.07716e-64
8.47033e-22
8.47033e-22
4.0039e-45
6.6959e-46
2.96856e-47
8.36709e-48
0
0
0
0
0
0
0
0
0
0
-2.31825e-69
8.47033e-22
-1.65815e-51
0
0
0
6.77626e-21
-6.77626e-21
0
1.35525e-20
-1.35525e-20
0
-1.40192e-50
-1.35525e-20
6.77626e-21
-6.77626e-21
0
-5.5441e-53
1.08987e-52
6.19058e-53
0
0
0
0
0
0
0
0
2.1684e-19
1.0842e-19
0
-1.0842e-19
-9.72216e-48
2.71051e-20
-1.52132e-47
-6.77626e-21
0
1.74791e-47
-5.37657e-47
3.88938e-62
6.35859e-45
-5.59882e-39
5.08489e-36
-1.04853e-35
-9.39552e-41
-1.76675e-40
2.40541e-46
1.01958e-56
-9.74616e-35
1.21661e-34
1.30063e-40
-4.04159e-46
-2.67276e-51
3.47715e-35
-3.46249e-36
1.20142e-35
1.12337e-35
1.25953e-44
-9.72346e-63
0
-4.00395e-36
0
-1.2241e-37
6.85899e-37
4.59177e-45
-8.67362e-19
-6.5253e-55
8.63191e-45
-5.19575e-38
1.49461e-37
0
-9.87659e-42
2.36531e-42
-1.28643e-36
4.17619e-53
-1.17402e-44
6.73078e-37
5.82826e-37
-3.85724e-42
0
-6.23027e-38
2.57759e-39
4.57828e-39
-1.51915e-39
-2.08916e-38
9.12508e-46
7.59963e-39
6.01108e-39
-1.16374e-41
3.72345e-39
0
1.5437e-39
0
3.49673e-44
-1.13273e-39
0
5.75124e-44
2.46691e-39
1.66461e-39
7.12222e-39
-1.04405e-53
8.14971e-39
0
6.39408e-39
1.52605e-38
1.75337e-38
0
0
0
1.37974e-38
-1.63712e-47
1.7225e-38
3.29192e-38
3.67614e-38
-2.6149e-38
-7.43574e-43
2.93537e-38
0
0
2.83141e-38
8.94967e-38
0
2.56383e-38
1.04405e-53
1.49251e-38
-2.47328e-38
1.04405e-53
0
4.20349e-38
-2.5876e-45
-1.85617e-38
-1.68773e-39
-2.10343e-38
-2.24343e-38
3.41994e-45
1.36568e-47
-7.39867e-45
-2.84719e-38
-7.32963e-38
-6.25095e-38
0
0
1.11108e-38
-9.46526e-39
2.76462e-42
-1.00527e-38
0
4.42544e-38
-4.06898e-40
0
-7.20719e-47
2.03124e-39
5.22114e-40
9.28144e-40
-1.16395e-41
-6.70528e-41
4.92688e-43
-2.39485e-40
2.15914e-40
-2.30864e-41
-2.62027e-40
-1.24365e-40
2.33297e-45
-1.26506e-45
-3.38813e-21
1.69407e-21
9.26564e-46
-1.90582e-21
3.37407e-45
-1.79995e-21
1.27055e-21
0
-8.47033e-22
0
6.30296e-46
-8.26558e-46
2.42646e-44
0
-3.11089e-44
-3.38813e-21
-3.38813e-21
-3.38813e-21
-1.53446e-47
1.24009e-46
2.96736e-67
0
1.17148e-47
6.30596e-48
-4.63651e-69
0
0
-1.48368e-67
-3.90626e-48
7.45267e-50
1.8546e-68
0
-1.35525e-20
0
-1.35525e-20
0
0
-8.13152e-20
-3.66844e-49
-5.42101e-20
-2.31825e-69
2.45763e-49
-1.0842e-19
-5.42101e-20
3.19274e-51
5.42101e-20
1.0842e-19
0
5.42101e-20
0
0
8.67362e-19
-2.87795e-50
3.06952e-49
-8.67362e-19
2.70899e-48
-4.66826e-48
-1.78082e-47
-8.67362e-19
-8.67362e-19
1.61873e-46
7.16093e-46
-4.33681e-19
3.14733e-47
9.75747e-48
-2.30978e-46
2.6678e-46
5.15457e-45
1.24339e-43
1.24728e-37
8.55285e-50
2.1009e-35
0
-3.32102e-34
3.44955e-44
-2.14712e-45
-1.64171e-40
-4.84226e-34
1.01489e-34
5.23528e-44
1.11021e-34
1.78342e-34
0
-6.66418e-35
-4.77594e-35
0
0
0
2.52467e-40
-3.47013e-46
1.04443e-36
-1.30962e-36
1.67684e-41
-4.33681e-19
-2.6817e-45
2.33778e-41
4.86534e-37
-2.12956e-37
2.00772e-36
0
2.40788e-36
-1.08752e-40
2.81577e-36
-1.2494e-43
-9.64306e-37
-3.29869e-36
2.50176e-36
1.8592e-36
0
1.87419e-39
3.84048e-38
1.81179e-38
-1.12761e-43
3.75829e-45
-4.84239e-38
-5.53917e-40
-2.0216e-40
-2.73957e-39
-1.06639e-45
-1.25631e-38
0
9.17255e-39
-1.67048e-52
0
0
-3.30049e-38
-1.90314e-39
-5.82878e-39
1.376e-44
-7.37347e-38
-1.32379e-42
-8.48588e-38
9.88482e-38
1.14514e-37
7.4713e-38
3.51212e-47
9.54973e-38
-9.24965e-38
0
-1.16082e-37
-5.94099e-37
-3.33384e-37
4.35453e-38
2.03455e-37
-1.95655e-37
0
2.03916e-56
-6.28717e-39
-8.11075e-38
0
-8.46125e-38
1.04069e-37
-2.73898e-39
0
0
0
2.51558e-37
0
0
0
-2.1866e-41
2.25027e-41
-4.97841e-60
-3.23319e-44
-2.83482e-38
8.13695e-43
-4.54179e-37
5.63519e-37
0
-1.04405e-53
-5.15695e-39
-1.04405e-53
-9.96408e-39
1.99092e-41
8.4771e-38
-3.75044e-37
-1.03692e-38
1.07583e-41
0
-2.24707e-39
-5.65328e-39
-6.24057e-40
-1.54119e-39
-3.11518e-39
0
0
-2.34865e-39
-3.51998e-39
-8.89973e-46
4.87365e-40
9.59216e-44
3.94527e-44
-1.0842e-19
0
1.0842e-19
-1.53236e-44
-1.40074e-44
-1.26608e-44
0
0
-5.42101e-20
9.18094e-45
-9.72346e-63
5.42101e-20
-1.40798e-43
4.08213e-45
-3.51884e-44
5.42101e-20
1.38072e-43
-5.85531e-45
2.71051e-20
1.35525e-20
0
2.96736e-67
-9.45979e-47
-4.90706e-47
-1.8546e-68
0
-1.15913e-69
-1.78822e-48
7.58939e-48
0
0
-1.0842e-19
-3.97244e-48
-3.69657e-47
-4.33681e-19
0
0
0
0
8.67362e-19
-3.35351e-48
-2.55907e-48
8.67362e-19
-8.67362e-19
-3.62227e-71
0
-1.84249e-50
8.67362e-19
0
8.67362e-19
8.67362e-19
0
-2.1684e-19
-7.627e-49
-4.33681e-19
-8.67362e-19
3.49407e-47
8.67362e-19
1.88418e-46
3.5118e-46
-8.76137e-46
-1.73472e-18
1.02648e-45
-7.9142e-46
-4.63669e-47
-1.02031e-46
1.04983e-45
-7.32436e-45
1.5297e-42
-6.68848e-36
-2.16966e-34
2.25364e-39
-3.26265e-55
4.02016e-34
3.99824e-40
7.85498e-40
1.15414e-33
0
-1.09695e-34
0
-5.53206e-34
-6.78807e-34
0
-2.96585e-34
1.61372e-39
-2.75616e-45
4.45271e-42
-6.1557e-45
0
0
1.19694e-36
1.84599e-40
-9.32688e-38
1.00784e-41
-7.43551e-44
7.44395e-37
1.1999e-36
3.01318e-40
-6.60074e-36
4.70939e-36
-8.0878e-36
-1.95733e-40
-1.59201e-35
-3.34096e-52
-4.61348e-36
0
-1.63231e-35
-7.97762e-36
0
0
-3.37653e-39
5.57695e-38
4.18977e-37
0
-3.34096e-52
2.51727e-37
1.4685e-37
-5.85778e-38
-8.04697e-45
0
4.59463e-38
-4.66349e-38
-8.00741e-39
0
1.9659e-37
3.3869e-37
-3.51912e-42
-2.51734e-37
0
-1.65062e-37
2.36196e-37
5.49926e-37
-6.54027e-37
-7.43138e-37
-3.67713e-37
0
-9.39001e-37
0
0
0
5.34684e-37
-2.34561e-36
2.32751e-37
-1.98069e-36
6.65225e-41
1.30534e-36
-1.66229e-43
-1.46509e-36
-3.0106e-36
8.05334e-44
5.64936e-41
-9.817e-37
-6.85913e-37
5.96408e-37
-8.10069e-41
6.76627e-37
-1.75584e-36
0
7.9916e-37
0
1.12746e-40
-9.25782e-44
-1.8345e-45
0
4.8604e-37
-1.37198e-40
2.97224e-40
-1.27082e-36
-9.79282e-44
3.12716e-37
2.97049e-37
1.6824e-40
2.28383e-37
-1.01958e-56
-3.89446e-37
1.67182e-37
-4.02137e-37
8.74293e-38
0
-1.03895e-40
5.18457e-38
1.84605e-38
0
0
-1.17128e-43
6.17891e-39
4.3046e-39
1.52941e-38
-1.1117e-39
6.7793e-40
-3.57253e-43
-3.98674e-44
4.33681e-19
4.33681e-19
-1.20068e-43
-4.33681e-19
0
-2.1684e-19
-6.3039e-44
-2.1684e-19
0
-2.1684e-19
-1.0842e-19
-3.11151e-61
5.42101e-20
5.47328e-45
5.55477e-42
-4.36482e-42
-6.42138e-43
1.07923e-44
1.35007e-46
-7.72826e-46
0
0
0
0
0
0
0
0
0
-9.37288e-48
1.0842e-19
-2.1684e-19
6.53285e-47
-2.1684e-19
2.43998e-46
1.00465e-46
-4.33681e-19
-1.48368e-67
8.67362e-19
1.73472e-18
-1.73472e-18
-2.49371e-48
2.63449e-48
0
1.19813e-48
1.73472e-18
8.67362e-19
-1.73472e-18
3.5993e-51
3.4241e-51
0
0
0
0
2.11101e-47
-2.76012e-47
-8.57245e-47
1.18695e-66
1.60043e-46
-3.46945e-18
-1.73472e-18
1.73472e-18
-8.67362e-19
9.53807e-45
0
0
0
3.77145e-43
-1.66781e-41
1.77059e-35
5.55685e-34
0
0
1.83958e-33
-3.08661e-35
5.91462e-34
-1.31886e-33
-5.10099e-43
-5.59152e-34
0
8.82084e-34
-7.24421e-39
3.56244e-34
-2.10135e-34
0
0
2.62033e-34
-5.58704e-43
0
0
-1.86751e-36
0
4.01226e-37
3.6215e-39
-1.27447e-57
-2.03185e-36
-3.8889e-36
1.31556e-35
0
-1.29415e-35
4.36695e-40
9.42797e-36
2.89e-35
2.51815e-35
-3.31175e-35
-2.27736e-40
3.50034e-35
0
0
3.4399e-36
5.90934e-37
-1.31419e-37
-1.58389e-36
4.06353e-41
-3.54199e-43
1.57109e-36
-1.69085e-37
-3.56673e-37
-6.56027e-42
1.15443e-45
-1.91603e-37
1.35538e-41
1.19065e-37
3.5214e-37
7.19984e-37
8.60845e-37
-1.63133e-55
5.34553e-51
-8.15663e-56
-1.81636e-38
-1.96101e-36
-1.13398e-36
-2.42854e-36
-1.33365e-36
2.67276e-51
-4.3452e-43
1.98481e-36
2.43021e-36
-6.20238e-46
2.97691e-36
-4.07777e-37
1.16998e-35
-5.09902e-37
9.06247e-36
-6.51036e-44
-5.28087e-36
0
0
0
0
2.33724e-40
6.30174e-36
4.3499e-37
-4.33943e-36
2.17862e-36
-2.64978e-36
-5.27112e-36
5.39596e-36
-3.10202e-36
0
2.76786e-36
-7.44035e-40
-9.95682e-60
-1.63133e-55
-4.6126e-37
3.18789e-36
-5.89191e-37
-6.68191e-52
8.65162e-43
-1.16857e-36
-1.03845e-36
1.90494e-36
1.31296e-36
-2.5504e-42
0
3.3276e-37
6.14076e-40
-1.05016e-37
2.14527e-37
2.54895e-57
-8.25345e-38
-8.45689e-38
0
1.37071e-38
0
-8.61033e-39
1.93246e-38
-9.20778e-39
5.67434e-39
-3.81633e-39
-1.32115e-42
-1.20822e-42
-2.1684e-19
-1.0842e-19
0
1.0842e-19
3.25261e-19
2.1684e-19
1.61931e-43
0
-5.31542e-44
-4.33681e-19
0
-7.12316e-45
-4.33681e-19
1.611e-45
-8.67362e-19
8.0834e-42
-2.01215e-44
3.95546e-45
-2.90201e-44
1.03767e-44
-1.64923e-45
1.89911e-65
0
1.86165e-46
6.27178e-48
1.0886e-46
1.37272e-46
2.50495e-46
2.74742e-46
2.59844e-47
2.4899e-47
1.73472e-18
0
0
-9.77529e-46
-5.49613e-46
-1.73472e-18
2.03386e-46
-1.15466e-46
0
1.45851e-47
5.76371e-47
0
-5.70306e-48
-1.48964e-48
3.46945e-18
1.28215e-49
3.46945e-18
-4.08681e-51
-3.46945e-18
5.62337e-53
3.56905e-50
3.46945e-18
3.46945e-18
-9.05003e-47
-3.46945e-18
1.73472e-18
-3.46945e-18
3.46945e-18
-3.46945e-18
1.24872e-44
3.46945e-18
3.46945e-18
-1.73472e-18
-8.67362e-19
-1.0846e-44
-1.31593e-44
-1.40522e-42
-3.0922e-42
-5.4811e-39
1.57838e-33
1.97843e-41
-1.53761e-33
0
6.313e-35
-1.41591e-33
-3.73549e-33
4.27642e-50
1.03664e-34
4.25199e-34
-7.64599e-34
-9.4719e-35
-3.20571e-34
-2.50191e-34
0
-2.63802e-39
-2.96283e-34
-3.26265e-55
1.06963e-34
-1.31029e-42
2.548e-39
4.0868e-36
1.72197e-36
-4.33681e-19
4.97841e-60
3.31999e-40
3.33593e-36
-1.54545e-35
0
-3.34096e-52
0
-2.33774e-35
-1.02495e-35
-3.06651e-35
2.73085e-35
1.79123e-35
-5.16155e-35
1.75638e-35
0
-1.68939e-35
0
4.88688e-41
2.37903e-40
3.81854e-36
-3.84941e-44
-7.4389e-36
-1.73586e-36
4.07887e-37
8.12661e-37
0
0
-3.71027e-43
-1.1772e-36
-1.58157e-38
-3.55301e-36
-4.02155e-36
3.26265e-55
2.43695e-36
-9.02933e-45
-3.31229e-36
7.80148e-36
-5.20183e-40
1.06911e-50
-6.79488e-36
-1.6924e-42
-4.26309e-40
2.99503e-36
-9.50283e-37
7.96546e-59
-1.06934e-35
-2.70424e-39
-7.84313e-36
-6.39998e-41
-2.57634e-36
3.70087e-42
0
1.544e-35
-2.12882e-39
0
4.6895e-43
4.63472e-36
-5.31908e-36
9.43511e-37
6.39434e-36
-7.44342e-36
3.26398e-39
0
4.97119e-36
2.0228e-39
0
-9.29133e-36
6.16984e-36
3.08117e-42
-9.46481e-43
-6.43246e-41
-1.73772e-35
3.7218e-36
0
0
1.3441e-39
-3.65645e-36
-3.17288e-36
-3.72704e-36
-7.62717e-42
1.60076e-36
5.84076e-36
-9.39234e-42
-3.46317e-37
-7.1351e-37
-2.23268e-42
0
-2.36306e-37
1.73754e-42
-6.9632e-38
-4.0129e-40
-5.02798e-38
-8.30973e-38
-2.43397e-38
-4.31476e-39
1.73472e-18
1.0842e-18
1.32988e-42
4.33681e-19
9.39813e-43
0
-8.67362e-19
1.73472e-18
-1.41052e-43
-8.26446e-46
8.67362e-19
-7.62504e-45
6.44334e-43
0
8.67362e-19
-7.14676e-42
8.67362e-19
-3.18302e-41
-3.25589e-43
3.31957e-46
-5.19868e-45
1.64843e-43
0
0
0
0
-5.15003e-46
1.67262e-46
7.31575e-47
-9.41441e-46
-2.36812e-45
-1.05314e-45
-4.74778e-66
0
0
1.73472e-18
0
3.46945e-18
1.88618e-45
2.95974e-46
8.57547e-46
2.56042e-46
3.42432e-46
-2.02183e-48
-4.04051e-47
3.46945e-18
-8.47898e-48
3.46945e-18
1.65378e-48
-4.2112e-52
-3.46945e-18
-3.46945e-18
0
0
0
0
-1.28629e-47
1.26819e-46
-8.67362e-19
-3.02569e-46
8.67362e-19
-8.67362e-19
-5.903e-46
-2.5729e-45
4.62335e-45
0
8.67362e-19
8.67362e-19
1.39793e-43
1.27762e-44
-2.91467e-42
9.28297e-41
4.26729e-36
-2.60487e-34
-1.71057e-49
4.5175e-33
2.90357e-34
-6.50747e-35
-1.40025e-38
3.16319e-38
1.90618e-33
-1.01843e-34
-9.28094e-34
0
1.23819e-34
-4.20341e-34
3.49667e-35
0
1.87021e-34
-6.87628e-34
3.26265e-55
-1.10658e-34
-2.86328e-43
-4.06451e-36
-9.27453e-36
-4.88505e-36
8.67362e-19
0
-1.90077e-42
-1.8724e-36
-2.40464e-35
0
-9.32507e-40
-3.26809e-36
0
-1.42619e-35
-6.98465e-35
6.31487e-36
-4.08593e-35
9.34254e-35
-1.61254e-35
-2.97258e-43
8.9908e-36
0
0
5.48338e-36
-2.08136e-35
-8.55525e-42
-9.75372e-36
-8.33131e-37
-5.56569e-37
-1.7038e-37
0
-1.75815e-40
-1.36807e-42
7.55015e-36
-3.58396e-37
-5.00668e-36
-5.69031e-36
8.97478e-40
-8.20901e-36
0
-1.32124e-39
-1.25945e-35
1.25834e-35
0
8.99793e-36
0
1.81903e-35
1.61903e-35
1.88025e-35
1.28414e-41
6.98882e-39
2.52258e-35
-6.79621e-35
-7.56714e-39
2.14692e-35
0
-2.13821e-50
-4.90322e-35
3.31966e-35
3.3995e-35
1.04405e-53
-2.40129e-35
-2.83822e-35
7.95823e-36
2.12539e-36
3.78545e-39
9.53613e-36
2.14651e-35
-5.30387e-35
1.01912e-41
-1.30197e-43
2.67276e-51
-2.97169e-35
6.5253e-55
5.81175e-39
-2.09689e-41
1.71912e-35
1.41082e-35
3.17821e-41
-5.30745e-43
6.40413e-42
-2.55849e-36
-9.37628e-36
3.39708e-37
0
-2.27078e-36
-1.47507e-35
-1.04405e-53
-1.14959e-36
8.91523e-40
0
0
-2.94285e-37
-2.75613e-40
9.47024e-38
2.94601e-38
8.48197e-39
0
-3.24497e-38
0
-3.28999e-38
4.33681e-19
0
2.1684e-19
-3.0033e-42
0
1.0842e-19
0
0
-4.97841e-60
1.12936e-42
9.63843e-43
0
0
3.98443e-45
2.86907e-44
-7.78159e-42
7.27465e-42
-3.00881e-42
0
-1.43224e-43
-3.35225e-43
2.09751e-43
3.26496e-44
-2.98363e-45
-7.84681e-45
1.51929e-64
0
0
2.1304e-45
8.47971e-46
0
-3.55589e-47
3.62115e-46
2.24807e-46
5.95778e-46
3.30527e-45
3.47781e-46
-1.72367e-45
-1.15699e-45
-2.18268e-45
1.15788e-47
-1.6263e-19
-1.6263e-19
8.13152e-20
5.83516e-47
2.1684e-19
-9.05568e-72
2.1684e-19
4.49443e-49
-2.1684e-19
-7.20021e-49
-4.42172e-75
2.1684e-19
-4.33681e-19
0
0
0
0
0
0
7.59645e-65
5.27416e-45
-1.45879e-44
0
0
4.86173e-63
-8.9131e-44
-4.15443e-43
4.4287e-44
7.58236e-42
4.91321e-41
-2.0633e-35
-1.78111e-33
-4.87841e-33
0
-1.99264e-34
1.00476e-38
-8.45058e-42
1.94409e-33
-4.02023e-33
0
0
0
-1.41232e-34
-2.09677e-33
-3.95068e-35
0
-3.96691e-34
-1.20811e-38
0
-1.60881e-34
5.15396e-42
4.16528e-36
-2.61012e-54
0
4.33681e-19
0
0
0
-2.40919e-35
-7.619e-42
3.48435e-35
3.72939e-36
1.50875e-39
-3.97011e-35
6.68191e-52
-5.37277e-36
1.28838e-39
-5.11283e-35
-5.38175e-35
-1.18773e-42
6.58515e-36
-2.5311e-37
0
-1.31334e-35
3.68491e-35
-1.69731e-42
-7.69244e-36
-1.53767e-35
-1.67048e-52
-1.45935e-36
-1.90367e-39
7.57015e-36
-1.13258e-39
-1.38688e-36
-1.38574e-35
1.33983e-35
-2.16674e-35
1.73128e-35
1.51021e-40
2.20243e-35
0
-4.15766e-39
-3.86898e-35
0
1.242e-34
2.89666e-43
-1.55572e-35
-2.16521e-35
-1.5487e-34
6.09115e-39
-1.06304e-35
-7.56877e-35
1.8845e-38
4.81084e-35
2.22525e-35
1.32216e-40
5.11841e-35
0
-9.84933e-35
-1.00861e-34
8.29185e-42
3.92937e-35
-1.249e-38
3.27279e-36
1.37229e-39
-5.64034e-42
-2.77004e-35
-3.38155e-35
-3.79991e-35
1.30506e-54
0
0
4.06499e-35
0
1.27273e-35
-3.93728e-41
3.60596e-36
-5.2901e-35
-4.68827e-41
-1.15609e-43
-3.41752e-41
-6.70533e-36
-6.02631e-39
-8.11478e-36
0
-3.30987e-36
-1.15111e-35
5.65987e-36
0
-1.49397e-37
5.68791e-37
0
4.26987e-38
3.43206e-38
-3.98375e-38
-7.57068e-38
2.86891e-38
2.94039e-38
-3.76168e-38
0
2.05756e-39
-2.20266e-42
1.3363e-43
-7.55414e-42
0
0
0
9.95682e-60
-1.0842e-19
1.6263e-19
-2.71051e-19
2.1684e-19
-4.97582e-42
2.1684e-19
-1.51527e-43
-1.30067e-41
6.34693e-41
-3.98273e-59
5.78561e-42
-1.04485e-42
3.78784e-43
5.60565e-44
-7.12672e-43
-7.95625e-44
9.72346e-63
5.19259e-45
8.60165e-46
2.37389e-66
0
0
0
0
0
0
0
3.79823e-65
-4.90612e-45
-8.67362e-19
0
-4.33681e-19
0
0
8.67362e-19
7.48863e-46
-8.67362e-19
0
0
0
0
8.67362e-19
8.67362e-19
8.67362e-19
0
-8.67362e-19
2.961e-49
7.44399e-48
4.33681e-19
4.33681e-19
9.98331e-47
4.93866e-46
6.62984e-46
8.80181e-46
0
0
0
9.72346e-63
2.63006e-43
4.49127e-43
6.40428e-43
7.99616e-43
-8.08026e-42
-1.04792e-40
-3.21521e-35
1.24543e-33
6.7585e-33
-3.44871e-38
3.34734e-34
5.01491e-34
1.1396e-41
-4.13554e-33
-3.35829e-38
-1.69042e-34
0
9.95682e-60
4.17828e-39
3.23169e-33
-1.89276e-38
0
0
0
7.65896e-35
4.92361e-35
-3.3533e-42
-5.40695e-36
-1.61648e-36
0
-5.68812e-39
0
-1.42018e-43
-2.43912e-42
2.43994e-36
2.28782e-39
-3.19363e-35
-4.23964e-36
-5.04128e-36
-9.94473e-39
-9.16815e-43
-5.25481e-39
-4.07832e-56
-1.36883e-34
5.22878e-36
-3.7068e-40
5.14826e-35
2.82872e-37
-3.87762e-36
0
-5.43176e-35
1.63133e-55
-7.27385e-35
3.28999e-39
1.62439e-35
-2.25902e-35
-3.49249e-36
-2.32797e-35
2.03087e-35
2.00011e-35
0
-3.54195e-35
1.86996e-35
-1.43211e-35
-2.03916e-56
-1.11784e-34
3.08165e-42
5.60475e-43
0
0
-4.21116e-34
1.55731e-40
-1.24546e-34
-1.16082e-34
4.6212e-35
6.57519e-35
2.32169e-35
1.09765e-38
-1.11075e-40
-1.39205e-34
-2.66399e-34
0
-1.44548e-34
-1.99385e-38
0
-3.41376e-38
3.11219e-42
-3.6699e-35
1.72407e-41
-4.50204e-35
-1.87903e-39
2.76638e-43
0
-8.60743e-35
-3.83493e-35
-2.20142e-42
-1.08436e-45
-8.85064e-39
-5.17442e-35
1.01958e-56
-3.36462e-35
0
-3.52164e-36
-3.34096e-52
0
1.67048e-52
2.38527e-41
2.09234e-38
-1.67048e-52
-1.34381e-35
-7.65733e-41
-6.70275e-36
-8.35239e-53
-7.79376e-36
0
1.10171e-37
-2.1512e-36
5.68219e-41
-1.43407e-37
-1.29437e-37
-4.17882e-38
2.46349e-41
1.55119e-39
-3.7394e-38
-6.68504e-38
-1.28626e-41
-1.39025e-39
2.45024e-41
2.30903e-41
1.01696e-43
8.67362e-19
4.33681e-19
-3.95425e-42
-1.0842e-19
0
0
4.33681e-19
-9.95682e-60
1.20312e-41
3.78731e-44
7.51005e-43
1.29785e-41
3.74485e-41
3.16942e-41
-1.32227e-41
4.17523e-42
-3.18005e-43
-4.43211e-43
8.86509e-44
1.4895e-44
-2.46323e-46
2.7647e-45
3.27303e-45
0
-9.81731e-46
4.26425e-45
1.27539e-44
0
-8.9533e-46
-8.69818e-46
0
0
0
1.45937e-45
-3.62681e-47
5.74404e-45
1.0842e-18
8.67362e-19
-1.35441e-45
0
1.36276e-45
5.83181e-46
1.50874e-47
4.33681e-19
-4.33681e-19
-3.70921e-68
-4.33681e-19
-4.33681e-19
0
0
0
4.33681e-19
0
4.33681e-19
4.33681e-19
0
0
0
0
0
0
3.4151e-44
-2.34507e-43
-2.66301e-43
-4.44204e-43
-1.47291e-42
2.36518e-41
-6.08238e-41
1.1886e-34
2.44709e-33
1.30243e-32
-5.20793e-33
0
-1.33711e-33
0
8.55285e-50
0
6.60346e-35
-3.39242e-38
1.9424e-41
9.43601e-34
-1.41436e-33
2.58108e-34
1.63133e-55
-2.09935e-41
-7.20587e-35
-1.48483e-34
-3.77869e-34
-7.6234e-39
-1.04405e-53
1.62155e-36
2.47236e-44
-1.68529e-38
5.22024e-54
0
-7.78695e-42
-3.47976e-36
1.78869e-35
-8.93447e-35
3.34096e-52
2.32944e-36
2.68313e-43
1.69084e-41
3.22534e-35
0
8.93247e-35
3.86353e-36
2.98271e-35
-7.6201e-35
1.54243e-36
1.3415e-35
-3.49086e-37
4.65666e-35
3.26265e-55
9.18537e-35
4.23382e-39
-5.03361e-35
-5.93649e-39
1.1146e-35
-5.34553e-51
-6.03007e-35
-7.13468e-35
1.07465e-34
-1.65911e-34
7.58508e-35
-1.19343e-34
5.06847e-40
1.93057e-34
-4.17619e-53
2.5655e-40
7.83645e-35
-2.20526e-35
4.29424e-35
2.04219e-41
3.6457e-35
4.04187e-38
1.1465e-34
-1.78418e-34
7.61129e-35
-2.33417e-35
0
8.53011e-38
-5.63404e-34
7.93646e-35
0
1.77203e-34
0
2.13821e-50
0
-3.89642e-38
-5.66101e-40
-9.92467e-35
2.62584e-36
-2.05215e-38
3.81583e-35
3.2225e-35
2.00277e-36
-2.33294e-41
5.47213e-42
1.55475e-35
4.88126e-35
-3.62114e-41
-2.67276e-51
1.43849e-35
-2.95543e-38
1.38105e-35
2.81791e-40
-8.87492e-37
-5.09789e-57
7.07222e-36
3.06641e-36
5.16833e-39
-5.30192e-41
-1.67048e-52
-7.98372e-41
-1.14368e-35
7.55161e-41
-1.43504e-37
1.81832e-36
-4.7491e-41
2.27997e-38
1.50095e-37
-7.61517e-38
-6.95271e-39
-1.50462e-37
5.26465e-40
0
1.15327e-41
-4.06707e-40
-3.07262e-41
-4.94298e-41
-5.5856e-42
-4.49415e-42
-7.96546e-59
4.06576e-20
0
-2.94353e-42
-9.00236e-42
-1.07459e-41
-8.91895e-42
-1.43879e-41
4.95369e-47
-2.35275e-42
-3.22911e-42
-2.27401e-40
-6.16638e-41
6.70133e-42
4.35236e-43
-1.39453e-43
6.36453e-43
2.07427e-43
0
0
-3.03858e-64
5.135e-46
8.83696e-45
0
-1.2598e-44
-8.89727e-44
6.4892e-45
1.4302e-44
2.6723e-46
-7.3382e-45
-1.77633e-44
-9.49557e-66
-8.11539e-45
4.46131e-47
-1.58677e-44
8.67362e-19
9.53361e-45
4.33681e-19
1.73472e-18
-1.31192e-45
-1.15542e-45
-8.67362e-19
0
9.06425e-47
4.33681e-19
1.46472e-48
3.59644e-49
1.28153e-49
8.85145e-51
0
0
0
0
3.70921e-68
1.59926e-44
1.93313e-46
4.49279e-45
0
0
0
0
0
0
-1.55575e-61
5.12092e-42
-1.88666e-40
-8.85035e-41
-5.37372e-35
-1.92982e-33
-9.84437e-33
6.13704e-33
1.06911e-50
3.9607e-38
1.23971e-42
6.13954e-38
-8.25205e-43
2.85479e-38
-2.3561e-34
8.21943e-41
-1.72052e-33
-2.0514e-33
-4.73166e-34
1.87521e-41
2.44022e-38
4.45824e-35
0
2.66246e-35
2.9187e-35
3.20845e-35
-7.73685e-36
-1.04405e-53
-4.07832e-56
3.07787e-36
4.44263e-42
-4.17619e-53
6.54767e-39
-3.40522e-35
8.35684e-35
3.68368e-43
4.7154e-41
1.00574e-42
-1.96839e-41
-5.98536e-35
3.57139e-35
-6.07962e-35
-4.8068e-35
-8.68524e-35
-3.25578e-35
-7.91783e-36
2.13821e-50
1.13243e-35
-2.18228e-35
0
-1.08576e-34
2.88651e-35
-8.55285e-50
2.35593e-40
-9.78408e-36
-1.46935e-35
-2.48459e-38
-3.03471e-34
-3.28716e-34
-1.71057e-49
-3.01366e-34
2.68362e-35
8.07471e-40
-8.57437e-35
-8.55285e-50
0
-2.08814e-34
2.70995e-35
8.88205e-35
-6.34465e-40
1.34352e-34
0
-5.22415e-34
0
-2.28663e-34
2.07455e-35
-2.13821e-50
2.13821e-50
-3.7889e-34
-2.99776e-34
-4.96135e-38
-4.32283e-34
-4.07317e-40
7.76219e-35
0
0
1.8125e-35
5.64207e-35
-1.84888e-35
-4.48692e-36
-4.68942e-35
1.50911e-36
8.75671e-37
6.43252e-41
-2.61012e-54
-3.492e-35
-3.41153e-35
-2.28988e-40
-4.78513e-41
-3.18689e-35
3.60117e-44
-1.42849e-35
2.92425e-35
3.68815e-37
0
-7.97922e-36
-6.52567e-36
6.29175e-36
1.40996e-40
-5.37063e-43
2.93177e-41
-1.93765e-38
6.54709e-41
-1.42725e-38
-1.20723e-36
-8.15663e-56
-1.80009e-37
-8.48421e-38
1.8247e-39
-3.25698e-39
-6.33342e-39
-6.45625e-38
2.39265e-38
-1.08462e-43
1.55126e-41
0
0
0
0
0
0
0
0
-3.98273e-59
1.05912e-41
8.60109e-42
0
0
4.73116e-42
-2.18068e-42
1.82747e-42
0
-9.95682e-60
4.42621e-42
-1.33311e-42
-7.46471e-43
-1.55575e-61
0
0
0
7.55156e-45
3.96984e-45
0
-2.85243e-44
3.72033e-44
-6.0636e-44
-9.91083e-45
8.80572e-46
1.56148e-44
3.61224e-44
2.22712e-45
0
-9.49557e-66
3.64716e-46
-5.38564e-44
6.72471e-45
-9.75782e-19
0
0
2.13471e-45
8.75223e-47
0
0
0
0
0
0
2.1684e-19
1.18695e-66
-3.85662e-47
-1.05099e-45
0
1.51929e-64
1.27911e-44
4.22703e-44
0
0
0
0
0
0
5.03689e-42
4.93577e-42
-3.10252e-42
-7.37486e-41
2.75142e-39
-1.38992e-33
1.02125e-33
5.29296e-33
9.38231e-33
-1.16597e-33
2.19712e-41
-1.39863e-40
-9.38239e-34
1.30506e-54
5.55999e-35
7.40866e-35
-2.00669e-42
0
-5.29127e-34
8.41008e-39
-5.95359e-41
3.71303e-34
-8.5813e-35
1.08923e-34
4.62546e-34
-5.27007e-35
-1.00677e-34
1.71473e-36
2.7298e-36
1.23111e-38
-5.66944e-36
-3.38927e-41
1.6978e-35
4.8498e-41
1.5901e-38
2.06564e-35
1.15951e-40
1.72651e-36
0
0
6.58293e-39
-1.08512e-34
-1.64771e-39
9.64158e-35
4.53149e-35
-3.68285e-35
-1.05264e-35
9.00362e-37
5.34553e-51
0
1.52351e-35
7.83757e-35
-7.06594e-35
-2.28888e-38
-7.17025e-42
0
1.87218e-35
4.17619e-53
1.45991e-34
4.76934e-35
-5.23911e-38
1.53135e-37
8.91352e-35
3.71186e-42
-1.17582e-34
1.01963e-34
-1.19913e-39
1.11829e-37
-2.92109e-35
-1.20921e-34
2.21259e-41
-4.44542e-34
0
3.1245e-34
6.51562e-40
1.7239e-35
-2.51303e-35
2.06892e-34
8.69493e-35
-1.42227e-37
2.63443e-34
8.09669e-35
1.86602e-35
-3.249e-40
-1.71691e-34
7.3068e-35
-4.61224e-36
-3.93358e-35
-5.89222e-35
3.3175e-36
1.95227e-36
-8.60717e-35
3.82877e-39
-3.91062e-36
1.1371e-40
-3.51704e-38
1.10284e-37
-8.63433e-38
7.96546e-59
-9.74405e-43
9.16976e-40
1.76877e-40
-1.25581e-35
-5.87825e-35
-5.97397e-37
2.7161e-36
-1.11186e-35
2.03314e-38
-6.18018e-36
1.08581e-41
-9.22707e-42
0
1.04405e-53
5.20685e-37
4.9922e-37
0
-2.16812e-39
3.19212e-37
-1.04371e-37
-4.73559e-41
-3.71953e-38
3.53648e-38
-8.33748e-38
-6.73905e-38
0
0
3.84317e-41
7.55457e-41
-3.18618e-58
-8.03286e-41
-6.94728e-41
0
-9.43897e-42
-6.92591e-42
0
0
0
0
0
-1.36577e-41
-2.53032e-42
-6.90997e-41
0
2.98693e-41
-7.31885e-42
-2.5888e-42
-2.17972e-43
0
0
0
5.51073e-45
-4.23666e-44
9.60502e-45
-1.34997e-44
2.20219e-44
9.72346e-63
2.61321e-44
2.43598e-44
0
0
0
0
0
0
3.73201e-44
5.70491e-44
-3.64436e-44
-1.59692e-44
-6.50521e-19
-5.86696e-45
-1.05661e-45
2.37389e-66
0
0
0
0
0
0
-2.1684e-19
1.6263e-19
-2.0724e-47
-4.286e-46
4.73188e-45
-2.3385e-44
-9.1221e-44
-1.22202e-43
-1.21543e-63
0
0
0
0
-2.25538e-42
5.72427e-42
1.38518e-41
2.63575e-42
-6.89287e-40
2.23847e-38
2.41924e-33
2.20219e-33
8.293e-33
-7.10187e-38
2.567e-33
4.46741e-38
8.93697e-43
1.73888e-34
-3.71298e-41
-3.1222e-34
6.35146e-35
-2.01343e-41
-1.30506e-54
-2.17159e-33
-7.79331e-35
0
-1.12438e-33
-7.54868e-38
-1.88591e-34
-5.36927e-34
0
9.58256e-35
1.03221e-35
-8.32204e-36
-3.33941e-38
1.03834e-38
1.23297e-40
-8.69847e-36
-2.41804e-38
1.35823e-38
-1.1257e-34
0
-4.30309e-35
-3.34096e-52
8.1494e-35
-5.59203e-43
1.50709e-34
0
-6.27049e-35
1.11795e-35
1.07826e-35
8.27378e-36
4.90521e-36
0
3.17411e-39
-1.36612e-35
-3.75015e-35
1.06911e-50
-9.95517e-36
0
0
-1.84298e-35
4.17619e-53
1.96321e-35
-9.36367e-35
9.22897e-35
2.20066e-34
-1.17195e-34
-1.75737e-42
-2.42731e-34
-2.51994e-34