/*--------------------------------*- C++ -*----------------------------------*\
| =========                 |                                                 |
| \\      /  F ield         | OpenFOAM: The Open Source CFD Toolbox           |
|  \\    /   O peration     | Version:  2212                                  |
|   \\  /    A nd           | Website:  www.openfoam.com                      |
|    \\/     M anipulation  |                                                 |
\*---------------------------------------------------------------------------*/
FoamFile
{
    version     2.0;
    format      ascii;
    arch        "LSB;label=32;scalar=64";
    class       volVectorField;
    location    "5000";
    object      U;
}
// * * * * * * * * * * * * * * * * * * * * * * * * * * * * * * * * * * * * * //

dimensions      [0 1 -1 0 0 0 0];

internalField   nonuniform List<vector> 
10368
(
(0.714708 0.000101303 4.45964e-26)
(0.72328 9.6325e-05 1.2697e-25)
(0.715441 9.70841e-05 -1.76106e-25)
(0.704892 9.71225e-05 0)
(0.697591 9.56124e-05 0)
(0.688258 9.02763e-05 1.7418e-24)
(0.679222 7.64751e-05 -4.0203e-24)
(0.664927 4.93951e-05 2.35747e-24)
(0.646592 -4.91102e-06 0)
(0.616618 -8.62235e-05 0)
(0.580866 -0.000215281 0)
(0.525413 -0.000379433 -1.11405e-23)
(0.466365 -0.000588717 -3.16915e-24)
(0.383231 -0.000809974 2.00799e-23)
(0.299099 -0.00103371 0)
(0.190584 -0.00116578 0)
(0.126612 -0.000939105 -5.03692e-22)
(0.000695046 -0.000967141 -6.53593e-22)
(-0.0147393 -0.00323471 1.32809e-17)
(0.183209 0.0721109 7.88474e-17)
(0.407384 0.226834 9.19921e-23)
(0.715754 0.452442 -3.48283e-17)
(1.00843 0.619851 0)
(1.2131 0.631493 0)
(1.30717 0.571483 0)
(1.38639 0.539208 -6.35696e-17)
(1.44907 0.493357 0)
(1.45705 0.422788 2.5967e-17)
(1.43413 0.357617 2.84801e-17)
(1.41493 0.307717 5.59911e-23)
(1.39512 0.267904 6.38701e-17)
(1.3823 0.235877 -3.34958e-17)
(1.37216 0.209225 -6.59271e-23)
(1.36991 0.185347 0)
(1.35996 0.161143 0)
(1.3528 0.138215 -4.12533e-17)
(1.33806 0.115624 -8.37201e-23)
(1.32846 0.0945256 -1.148e-17)
(1.30987 0.0735817 0)
(1.29659 0.0538042 -6.41582e-23)
(1.27078 0.0337633 3.38013e-18)
(1.25203 0.0159694 2.17627e-22)
(1.22585 -0.0012953 -1.17984e-19)
(1.20408 -0.0176822 0)
(1.17387 -0.0329963 2.10936e-18)
(1.14585 -0.0482201 0)
(1.11006 -0.0615112 0)
(1.07188 -0.075502 -4.98485e-18)
(1.01662 -0.0869471 -5.2426e-18)
(0.963847 -0.0965078 5.49994e-18)
(0.902815 -0.10368 -2.13396e-22)
(0.837978 -0.108788 6.00779e-18)
(0.754982 -0.110923 0)
(0.646518 -0.107684 -6.42957e-18)
(0.523878 -0.0972581 -2.40411e-23)
(0.405356 -0.0825259 3.84101e-23)
(0.253761 -0.0596321 -7.17986e-24)
(0.0586037 -0.0185813 1.76525e-23)
(-0.0850055 0.0255315 -6.30258e-18)
(-0.125621 0.0490507 -5.86939e-18)
(-0.105345 0.0512551 -5.56705e-18)
(-0.0833068 0.0490177 -4.10846e-23)
(-0.068291 0.0455654 3.94836e-23)
(-0.0598684 0.0436046 -5.08329e-18)
(-0.0538175 0.0417149 4.99687e-18)
(-0.0397129 0.0321766 4.94073e-18)
(-0.0272913 0.0227789 -4.92609e-18)
(-0.0210282 0.017856 7.5379e-23)
(-0.0189155 0.0162116 4.96579e-18)
(-0.0189358 0.0161427 5.01456e-18)
(-0.0195327 0.0163885 4.3065e-26)
(-0.0213439 0.0177115 -5.13439e-18)
(-0.0235074 0.0194138 -5.17802e-18)
(-0.0253357 0.0207464 0)
(-0.0269758 0.0217345 -8.06898e-23)
(-0.0285951 0.0224806 -5.3578e-18)
(-0.0306401 0.0233783 0)
(-0.0327364 0.024272 5.50573e-18)
(-0.0352053 0.0253793 1.11487e-17)
(-0.0375629 0.0263454 0)
(-0.0397915 0.0270229 1.70775e-22)
(-0.0420683 0.0275781 -5.77724e-18)
(-0.0444437 0.0280442 -1.7845e-22)
(-0.0469384 0.0284553 -1.18276e-17)
(-0.0494776 0.0287623 0)
(-0.0521176 0.0289901 6.04273e-18)
(-0.05477 0.0291114 6.10281e-18)
(-0.0575338 0.0291406 0)
(-0.0603223 0.0290887 -6.21457e-18)
(-0.0631691 0.0288918 6.26644e-18)
(-0.0662596 0.0287329 -1.26275e-17)
(-0.0694823 0.0285335 6.35723e-18)
(-0.0729275 0.0283479 0)
(-0.0766417 0.0282241 -6.4316e-18)
(-0.0804017 0.0280741 0)
(-0.0841078 0.0277914 0)
(-0.0879638 0.0274892 -6.51481e-18)
(-0.091936 0.02718 6.53629e-18)
(-0.0962444 0.0269551 0)
(-0.100556 0.0267729 3.28519e-18)
(-0.104713 0.0264471 4.89346e-25)
(-0.108944 0.0261242 -3.29754e-18)
(-0.113233 0.0257768 3.30229e-18)
(-0.11772 0.0254886 3.30619e-18)
(-0.122389 0.0252759 0)
(-0.127154 0.0251254 -3.31163e-18)
(-0.131931 0.024996 -3.31388e-18)
(-0.13663 0.0248517 2.02339e-22)
(-0.141283 0.0246558 -4.04716e-22)
(-0.146034 0.024473 2.02358e-22)
(-0.150883 0.0242988 -3.3153e-18)
(-0.155937 0.0241691 0)
(-0.161173 0.0241066 3.31341e-18)
(-0.166458 0.0240601 -3.31167e-18)
(-0.171751 0.0240013 -3.30931e-18)
(-0.176884 0.0238712 3.30613e-18)
(-0.18184 0.0235959 -3.30214e-18)
(-0.186791 0.0232262 0)
(-0.191917 0.0228191 -1.64592e-18)
(-0.196946 0.0223646 1.98763e-22)
(-0.201564 0.0216654 -3.9822e-22)
(-0.205705 0.0206756 3.98952e-22)
(-0.209706 0.0193919 -1.98975e-22)
(-0.21358 0.0179339 1.97987e-22)
(-0.217317 0.0161798 -1.95167e-22)
(-0.220989 0.0142551 -3.92724e-22)
(-0.224797 0.0121009 1.60259e-18)
(-0.229037 0.00995065 0)
(-0.2337 0.00776099 7.93347e-19)
(-0.23896 0.00568121 3.85279e-22)
(-0.245384 0.00379222 -3.93643e-19)
(-0.254009 0.0026248 1.96405e-19)
(-0.264769 0.00247437 -1.95365e-19)
(-0.274838 0.00273772 0)
(-0.281985 0.00279558 -1.93241e-19)
(-0.289819 0.00299984 -1.92314e-19)
(-0.298757 0.00384948 -3.82524e-19)
(-0.301517 0.00427964 3.69669e-22)
(-0.298863 0.00223504 -1.8697e-24)
(-0.302076 0.00032293 -3.64615e-22)
(-0.311426 0.000393511 3.57554e-22)
(-0.316452 0.000430968 -2.5692e-24)
(-0.321276 0.000472304 -6.80107e-22)
(-0.325283 0.000510037 3.28548e-22)
(-0.328881 0.000548567 0)
(-0.331985 0.000587423 0)
(-0.334669 0.000627725 0)
(-0.336808 0.000668696 -2.58285e-22)
(-0.33838 0.000711485 2.4344e-22)
(-0.339233 0.000754687 0)
(-0.339361 0.000799322 0)
(-0.338408 0.000843376 0)
(-0.336399 0.000887365 -4.23418e-23)
(-0.33332 0.000931462 1.55265e-22)
(-0.329206 0.000975486 1.3986e-22)
(-0.323584 0.00101725 -1.20439e-22)
(-0.315868 0.00105727 1.11698e-22)
(-0.305066 0.00109211 1.9193e-22)
(-0.290625 0.00112084 -8.06904e-23)
(-0.272041 0.00114118 7.41965e-23)
(-0.248649 0.00114699 0)
(-0.220381 0.00113747 0)
(-0.186663 0.00111055 0)
(-0.147405 0.00106625 3.05957e-23)
(-0.102241 0.0010033 -2.80508e-23)
(-0.0511585 0.000921721 -1.72328e-23)
(0.00571882 0.00082253 1.57897e-23)
(0.0677685 0.000709045 0)
(0.133783 0.000587603 0)
(0.202092 0.000465797 0)
(0.27027 0.00035221 0)
(0.335771 0.000255065 0)
(0.396124 0.000177754 0)
(0.450055 0.000120221 0)
(0.496129 8.22552e-05 -1.55206e-24)
(0.534371 6.24799e-05 1.42045e-24)
(0.564727 5.52876e-05 -1.12561e-24)
(0.589183 5.53617e-05 1.91015e-24)
(0.607278 6.03539e-05 -8.0536e-25)
(0.621429 6.73884e-05 4.84905e-25)
(0.630701 7.42658e-05 -4.43709e-25)
(0.638259 8.03192e-05 2.47451e-25)
(0.642126 8.46001e-05 -2.2642e-25)
(0.645967 8.78235e-05 0)
(0.646355 8.95817e-05 0)
(0.64799 9.08901e-05 0)
(0.646058 9.11603e-05 0)
(0.646333 9.15333e-05 0)
(0.642853 9.11305e-05 0)
(0.642419 9.12378e-05 7.56026e-28)
(0.637956 9.06344e-05 -6.91718e-28)
(0.638658 9.08327e-05 0)
(2.16546 -0.000374385 0)
(2.19137 -0.000469299 0)
(2.16771 -0.000436307 0)
(2.1358 -0.00039915 1.10998e-24)
(2.11373 -0.000374825 -1.19246e-24)
(2.08558 -0.000345121 2.69096e-24)
(2.05846 -0.000319239 -6.21094e-24)
(2.01558 -0.000279788 7.69653e-24)
(1.96084 -0.000236075 -4.68113e-24)
(1.87117 -0.000170115 0)
(1.76463 -0.000102906 0)
(1.59884 -2.24905e-05 -1.72127e-23)
(1.42287 3.70734e-05 2.07162e-23)
(1.17415 8.56689e-05 -3.75312e-23)
(0.922791 0.000123736 4.57175e-23)
(0.59627 9.61094e-05 -7.55532e-23)
(0.399354 0.000154546 8.71665e-22)
(0.0193673 0.000139474 1.01099e-21)
(-0.0290214 -0.00570672 0)
(0.551822 0.216476 -1.2185e-16)
(1.20279 0.670535 7.27107e-17)
(2.10011 1.33245 5.37967e-17)
(2.95912 1.82557 2.47262e-17)
(3.58198 1.8674 1.54846e-23)
(3.88974 1.69957 0)
(4.13843 1.60696 4.89083e-17)
(4.33493 1.47219 0)
(4.37619 1.2654 0)
(4.32076 1.07293 8.64221e-23)
(4.26901 0.923974 -8.60908e-23)
(4.21242 0.804586 -4.91119e-17)
(4.17524 0.708215 5.15199e-17)
(4.14486 0.627793 0)
(4.13844 0.555728 0)
(4.10945 0.482844 1.16287e-22)
(4.08911 0.413807 3.17373e-17)
(4.04576 0.345784 1.26428e-22)
(4.01794 0.282217 1.76659e-17)
(3.96294 0.219146 1.43028e-22)
(3.9243 0.159585 9.85229e-18)
(3.84826 0.0993052 -5.20263e-18)
(3.79304 0.0456817 0)
(3.71526 -0.00633893 1.81419e-19)
(3.65116 -0.05574 3.06791e-18)
(3.56169 -0.101887 0)
(3.47945 -0.147808 0)
(3.37359 -0.187901 7.26e-18)
(3.26246 -0.230154 7.67279e-18)
(3.10088 -0.26477 -8.07043e-18)
(2.94618 -0.293882 -8.46743e-18)
(2.76677 -0.315895 1.77254e-17)
(2.57677 -0.331857 -9.25103e-18)
(2.33485 -0.339173 7.13454e-23)
(2.01947 -0.330881 -1.50626e-22)
(1.65941 -0.301204 7.96098e-23)
(1.30767 -0.258349 -1.02395e-17)
(0.857846 -0.191739 -1.03347e-17)
(0.268639 -0.0706765 3.75578e-23)
(-0.186871 0.0627816 -3.8836e-23)
(-0.339691 0.137717 6.80732e-23)
(-0.300116 0.148892 8.60768e-18)
(-0.243692 0.145016 8.26623e-18)
(-0.20194 0.135845 0)
(-0.1775 0.130284 7.86222e-18)
(-0.159395 0.124564 -7.72901e-18)
(-0.11808 0.0962804 7.64318e-18)
(-0.0819486 0.0685702 7.62073e-18)
(-0.0636462 0.0540333 0)
(-0.0574493 0.0491816 -7.68281e-18)
(-0.057622 0.0490427 0)
(-0.0595358 0.0498486 1.19935e-22)
(-0.0650124 0.0538576 6.6846e-26)
(-0.0715413 0.0590028 -8.01094e-18)
(-0.0770606 0.0630287 8.08729e-18)
(-0.0820332 0.0660239 -1.24827e-22)
(-0.0869826 0.0683079 1.26439e-22)
(-0.0931798 0.071029 1.28291e-22)
(-0.0995516 0.0737466 8.51682e-18)
(-0.106988 0.0770798 -8.62274e-18)
(-0.114108 0.0799929 2.66258e-22)
(-0.120872 0.082049 -8.82887e-18)
(-0.127789 0.0837378 -2.72644e-22)
(-0.135005 0.0851568 -2.76009e-22)
(-0.142577 0.0864056 9.14708e-18)
(-0.150294 0.0873426 2.82278e-22)
(-0.158312 0.0880371 -9.34578e-18)
(-0.166386 0.088415 -9.43814e-18)
(-0.174792 0.0885113 -2.9082e-22)
(-0.183291 0.0883674 5.86586e-22)
(-0.191987 0.0877915 -2.95645e-22)
(-0.201398 0.0873207 9.76318e-18)
(-0.211215 0.0867278 -1.96599e-17)
(-0.221688 0.0861713 -6.03676e-22)
(-0.232935 0.0857872 3.0338e-22)
(-0.244326 0.0853239 3.05015e-22)
(-0.255586 0.0844691 -3.06126e-22)
(-0.267286 0.0835515 5.82115e-24)
(-0.279337 0.0826139 -1.01052e-17)
(-0.292339 0.0819135 3.09148e-22)
(-0.305351 0.0813411 -1.78208e-24)
(-0.317938 0.0803457 5.08897e-18)
(-0.330739 0.0793586 -6.22211e-22)
(-0.343726 0.0783007 5.10461e-18)
(-0.357286 0.0774173 -3.12832e-22)
(-0.371365 0.0767561 3.12118e-22)
(-0.385719 0.0762795 5.11848e-18)
(-0.400101 0.0758648 0)
(-0.414266 0.0754098 0)
(-0.428309 0.0748042 5.12353e-18)
(-0.442644 0.0742378 0)
(-0.457274 0.073698 5.12254e-18)
(-0.472487 0.0732871 3.12593e-22)
(-0.488216 0.0730716 0)
(-0.504074 0.0729007 1.02332e-17)
(-0.519934 0.072687 5.11305e-18)
(-0.535327 0.0722607 -5.10792e-18)
(-0.55022 0.0714018 3.11239e-22)
(-0.565094 0.0702591 -3.11004e-22)
(-0.580417 0.0689888 0)
(-0.595428 0.0675673 -2.53729e-18)
(-0.609249 0.0654138 2.53117e-18)
(-0.621734 0.0624021 0)
(-0.633808 0.0585058 0)
(-0.645533 0.0540877 0)
(-0.656891 0.0487819 4.99347e-18)
(-0.668117 0.0429707 0)
(-0.679782 0.0364716 -1.23777e-18)
(-0.692726 0.0299799 6.01542e-22)
(-0.706949 0.0233682 -1.22512e-18)
(-0.722973 0.0170919 0)
(-0.742388 0.0113828 0)
(-0.767873 0.0077833 3.02074e-19)
(-0.799423 0.00718696 -5.87616e-22)
(-0.828962 0.00782207 -2.99166e-19)
(-0.850079 0.00789599 2.97668e-19)
(-0.873033 0.0083972 2.97872e-19)
(-0.898515 0.0106844 -5.73039e-22)
(-0.906579 0.0118507 -5.70262e-22)
(-0.900078 0.00588734 1.13194e-21)
(-0.909645 0.00013749 -5.63362e-22)
(-0.936693 0.000152572 0)
(-0.951312 0.000125543 0)
(-0.965299 0.000119162 -5.22402e-22)
(-0.976906 0.000112058 4.56017e-24)
(-0.987279 0.000106516 4.83993e-22)
(-0.996174 0.000101267 4.53769e-22)
(-1.00379 9.58612e-05 -4.32056e-22)
(-1.00976 8.99328e-05 0)
(-1.014 8.42614e-05 0)
(-1.01606 7.7721e-05 0)
(-1.01592 7.1054e-05 0)
(-1.01253 6.34607e-05 -2.84836e-22)
(-1.00594 5.64713e-05 3.30279e-22)
(-0.996094 4.55105e-05 -4.72231e-22)
(-0.983078 3.52406e-05 -1.69844e-21)
(-0.965494 2.49745e-05 -1.51902e-21)
(-0.941586 1.50573e-05 -1.34886e-21)
(-0.908421 5.78081e-06 -2.96492e-22)
(-0.864359 -2.35503e-06 0)
(-0.807863 -1.37996e-05 1.06318e-22)
(-0.736997 -2.39343e-05 -9.76891e-23)
(-0.651556 -3.2817e-05 0)
(-0.549829 -4.08026e-05 0)
(-0.431543 -4.80802e-05 0)
(-0.295601 -5.53615e-05 0)
(-0.141972 -6.29389e-05 0)
(0.0289772 -7.11313e-05 1.85698e-23)
(0.215396 -7.96818e-05 -1.70097e-23)
(0.413694 -8.82527e-05 6.81907e-24)
(0.618902 -9.63552e-05 -6.24388e-24)
(0.823776 -0.000103836 0)
(1.02073 -0.000111213 0)
(1.20232 -0.000119734 2.18082e-24)
(1.36473 -0.000130181 -1.9961e-24)
(1.50362 -0.000142141 0)
(1.61906 -0.000155506 0)
(1.71082 -0.000169472 0)
(1.78483 -0.000184428 0)
(1.83967 -0.000197137 0)
(1.88261 -0.000208946 0)
(1.91078 -0.000216269 -5.36404e-25)
(1.93375 -0.000224237 4.9083e-25)
(1.94553 -0.00022686 0)
(1.95722 -0.00023157 0)
(1.95843 -0.000229302 0)
(1.9634 -0.000231199 -5.45208e-26)
(1.95756 -0.000224447 8.46058e-27)
(1.9584 -0.000224331 2.24928e-26)
(1.94785 -0.000214246 1.40974e-26)
(1.94654 -0.000213065 0)
(1.93302 -0.000201545 0)
(1.93518 -0.000204077 0)
(3.67612 -0.00291697 0)
(3.71983 -0.00319684 0)
(3.67986 -0.00308382 0)
(3.62585 -0.00295155 1.1629e-24)
(3.58853 -0.00286098 -1.24955e-24)
(3.54098 -0.00274705 0)
(3.49536 -0.00264159 0)
(3.42329 -0.00247664 0)
(3.3316 -0.00227513 0)
(3.18114 -0.00195537 0)
(3.00291 -0.00159376 -2.4282e-23)
(2.72477 -0.00108622 2.90206e-23)
(2.43028 -0.000612116 0)
(2.01252 -7.86979e-05 -3.95245e-23)
(1.59076 0.000359224 4.81848e-23)
(1.03946 0.000570538 -7.96982e-23)
(0.700674 0.000785565 9.77802e-23)
(0.0573412 0.00069922 4.27003e-21)
(-0.0267812 -0.00589468 0)
(0.933083 0.364866 -4.28042e-17)
(2.00025 1.11314 -2.50728e-21)
(3.4734 2.20081 -5.64713e-17)
(4.894 3.01566 -2.58164e-17)
(5.94814 3.09815 -1.60563e-23)
(6.49527 2.83609 0)
(6.925 2.68796 5.02576e-17)
(7.26422 2.46696 7.1983e-23)
(7.35639 2.1271 -1.53092e-22)
(7.28226 1.80798 8.13229e-23)
(7.20446 1.55846 -9.34161e-23)
(7.11455 1.35751 -5.03214e-17)
(7.05479 1.19485 -1.49174e-20)
(7.0047 1.05881 2.77694e-17)
(6.99488 0.93696 1.09895e-22)
(6.94803 0.813789 -1.19529e-22)
(6.91597 0.697128 1.22979e-22)
(6.845 0.582053 0)
(6.8001 0.474502 -1.81859e-17)
(6.70938 0.36773 -1.45691e-22)
(6.6466 0.266899 0)
(6.52138 0.164766 5.36815e-18)
(6.43043 0.0738362 0)
(6.30134 -0.0144416 0)
(6.19571 -0.0983199 -3.17191e-18)
(6.04738 -0.17675 2.04001e-22)
(5.912 -0.254897 -4.3349e-22)
(5.73655 -0.323215 -5.32786e-22)
(5.55477 -0.395469 0)
(5.28932 -0.455069 8.37698e-18)
(5.0345 -0.505458 8.7968e-18)
(4.73817 -0.543974 -1.8434e-17)
(4.42506 -0.572512 0)
(4.0281 -0.587163 0)
(3.51154 -0.576605 0)
(2.91678 -0.529897 0)
(2.33029 -0.459901 1.07289e-17)
(1.58003 -0.351288 1.08542e-17)
(0.582281 -0.15084 -1.08329e-17)
(-0.220155 0.07695 1.02733e-17)
(-0.521442 0.2123 9.57143e-18)
(-0.484523 0.240359 0)
(-0.402752 0.2395 -1.7453e-17)
(-0.33682 0.226439 -1.28954e-22)
(-0.296762 0.217738 1.27031e-22)
(-0.266387 0.208022 0)
(-0.19796 0.161163 -8.07172e-18)
(-0.138372 0.115586 2.45744e-22)
(-0.108062 0.0916439 -2.46371e-22)
(-0.0977624 0.0836635 1.28301e-22)
(-0.0981817 0.0835639 -1.25053e-22)
(-0.101556 0.0850509 2.53273e-22)
(-0.110844 0.0918638 -8.38937e-18)
(-0.121905 0.100579 8.46026e-18)
(-0.13126 0.107392 -8.54103e-18)
(-0.139714 0.112479 2.63603e-22)
(-0.148177 0.116398 -8.75348e-18)
(-0.158709 0.12102 -2.70966e-22)
(-0.169561 0.125653 -8.99421e-18)
(-0.182143 0.131272 9.10566e-18)
(-0.194211 0.136192 2.8106e-22)
(-0.20572 0.139688 0)
(-0.217496 0.142565 0)
(-0.229783 0.144985 0)
(-0.242667 0.147109 -2.94789e-22)
(-0.255811 0.14871 -1.19257e-25)
(-0.269461 0.149894 3.01053e-22)
(-0.283227 0.150552 -3.04161e-22)
(-0.297555 0.150726 3.06888e-22)
(-0.312063 0.1505 0)
(-0.326937 0.149553 1.02296e-17)
(-0.342991 0.148767 1.03061e-17)
(-0.359743 0.147774 1.03763e-17)
(-0.377586 0.146833 0)
(-0.396687 0.146161 3.20411e-22)
(-0.416036 0.145355 1.97203e-25)
(-0.43521 0.143901 -3.23079e-22)
(-0.455108 0.142334 5.16001e-24)
(-0.475603 0.140734 3.25528e-22)
(-0.497619 0.139511 -6.5263e-22)
(-0.519652 0.138504 -5.35824e-18)
(-0.541022 0.136797 0)
(-0.562742 0.135104 0)
(-0.584789 0.133295 -1.077e-17)
(-0.607773 0.131777 -5.39086e-18)
(-0.631595 0.130628 0)
(-0.655858 0.129789 0)
(-0.680158 0.129053 0)
(-0.704114 0.128255 -5.40313e-18)
(-0.727894 0.12721 3.30446e-22)
(-0.752155 0.126232 -5.40329e-18)
(-0.776913 0.1253 -5.40121e-18)
(-0.802615 0.124581 -3.29595e-22)
(-0.829135 0.124185 0)
(-0.855849 0.123861 -5.3941e-18)
(-0.882535 0.12346 5.38961e-18)
(-0.908457 0.122701 1.07669e-17)
(-0.933575 0.121218 -5.376e-18)
(-0.958653 0.119256 -6.55022e-22)
(-0.984386 0.117065 6.54407e-22)
(-1.00956 0.114611 0)
(-1.03279 0.110923 2.667e-18)
(-1.0539 0.105801 -6.4877e-22)
(-1.07434 0.0991851 -2.64915e-18)
(-1.09423 0.0916886 -1.28941e-21)
(-1.11357 0.0826935 6.3857e-22)
(-1.13278 0.0728478 2.6183e-18)
(-1.15277 0.0618393 0)
(-1.17489 0.0508391 0)
(-1.19917 0.0396333 1.29012e-18)
(-1.2265 0.0289983 -6.418e-19)
(-1.25938 0.019331 -6.23345e-22)
(-1.30173 0.0132385 -3.17371e-19)
(-1.35391 0.0122033 -3.17497e-19)
(-1.40265 0.0132125 3.15455e-19)
(-1.43774 0.01329 -3.13816e-19)
(-1.4756 0.014117 -3.86153e-24)
(-1.51662 0.0178839 3.10977e-19)
(-1.52991 0.0197316 -3.08567e-19)
(-1.52102 0.0096835 -1.51543e-19)
(-1.53704 5.42649e-05 -5.93134e-22)
(-1.58112 6.77197e-05 5.79947e-22)
(-1.60509 -4.04607e-05 -5.70859e-22)
(-1.62795 -8.53372e-05 5.49173e-22)
(-1.6469 -0.000131385 -5.3275e-22)
(-1.66376 -0.000171802 -5.03658e-22)
(-1.67813 -0.000210705 9.59254e-22)
(-1.69032 -0.000249263 -4.54118e-22)
(-1.69972 -0.000287199 0)
(-1.70615 -0.000325021 0)
(-1.70893 -0.00036505 -3.5919e-22)
(-1.70792 -0.000400086 6.7566e-24)
(-1.70142 -0.000435889 3.06386e-22)
(-1.68952 -0.000467378 0)
(-1.67204 -0.000507801 -2.44293e-22)
(-1.64914 -0.000544318 2.01181e-21)
(-1.61847 -0.000576039 -1.59585e-21)
(-1.57709 -0.000600503 1.76293e-21)
(-1.52013 -0.000612864 -3.19858e-22)
(-1.44485 -0.000612455 6.76355e-23)
(-1.34863 -0.000612181 0)
(-1.22829 -0.00059949 0)
(-1.08349 -0.000577221 0)
(-0.911365 -0.00054914 0)
(-0.711438 -0.000519946 0)
(-0.481873 -0.000495529 0)
(-0.222625 -0.000481241 0)
(0.0656956 -0.000483624 0)
(0.379993 -0.000509656 0)
(0.714273 -0.000568487 0)
(1.06022 -0.000668176 0)
(1.40568 -0.000810631 -7.2595e-25)
(1.73795 -0.000988381 6.64513e-25)
(2.04448 -0.00118457 0)
(2.31882 -0.00138089 0)
(2.55362 -0.00155947 0)
(2.749 -0.00171556 0)
(2.90447 -0.00184547 0)
(3.02998 -0.00195809 0)
(3.12309 -0.00204408 1.07172e-24)
(3.19606 -0.00211876 -9.80654e-25)
(3.24397 -0.00217336 0)
(3.28307 -0.00222387 3.99965e-25)
(3.30315 -0.00224475 -3.65984e-25)
(3.32305 -0.00227222 2.0597e-25)
(3.32516 -0.00226623 -1.88489e-25)
(3.33363 -0.00227782 0)
(3.32376 -0.00224918 4.33666e-26)
(3.32519 -0.00224994 -2.35569e-26)
(3.30731 -0.00220514 -1.47521e-26)
(3.30507 -0.00220076 0)
(3.28215 -0.00214795 0)
(3.28586 -0.00215911 0)
(5.2699 -0.00422242 0)
(5.33026 -0.00418702 0)
(5.27382 -0.00414725 0)
(5.1974 -0.00411735 0)
(5.14463 -0.00409345 0)
(5.07742 -0.00405581 0)
(5.01316 -0.00401292 0)
(4.91164 -0.00393386 0)
(4.78286 -0.00381605 0)
(4.57099 -0.00359971 1.72738e-23)
(4.32048 -0.00328699 -4.60638e-23)
(3.92794 -0.0027517 3.06771e-23)
(3.51276 -0.00209616 0)
(2.92079 -0.00113247 0)
(2.32291 -0.000122628 -1.21869e-22)
(1.53537 0.000685179 1.49877e-22)
(1.04182 0.00143691 0)
(0.118791 0.00133751 4.76325e-21)
(-0.00465301 -0.00295881 7.00892e-17)
(1.33694 0.520864 9.16375e-17)
(2.81473 1.56322 2.44638e-22)
(4.84889 3.06975 -1.28837e-22)
(6.82062 4.20503 -1.73125e-23)
(8.30096 4.33397 1.63764e-23)
(9.09484 3.98717 0)
(9.70141 3.78542 -4.98752e-17)
(10.1799 3.47987 6.68343e-17)
(10.3345 3.01132 1.60927e-22)
(10.2559 2.56911 -1.59011e-22)
(10.1621 2.22 0)
(10.0475 1.93759 4.3741e-20)
(9.97137 1.70824 -5.18927e-17)
(9.90636 1.51586 -5.46304e-17)
(9.89656 1.34355 -2.88368e-17)
(9.83656 1.16928 -1.14675e-22)
(9.79696 1.00417 0)
(9.70318 0.840895 0)
(9.64517 0.688255 1.80219e-17)
(9.52355 0.536381 0)
(9.44085 0.392963 -1.00927e-17)
(9.27197 0.247193 5.34569e-18)
(9.1494 0.117298 1.72524e-22)
(8.97344 -0.00924206 0)
(8.8303 -0.1295 0)
(8.62752 -0.242456 -2.04868e-22)
(8.4434 -0.355091 7.15045e-18)
(8.20271 -0.45417 -3.25945e-21)
(7.9561 -0.559231 0)
(7.59348 -0.647246 -1.27729e-22)
(7.24401 -0.722271 2.72526e-22)
(6.83589 -0.780897 9.40332e-18)
(6.40504 -0.825644 0)
(5.86025 -0.852006 -1.52944e-22)
(5.15136 -0.844457 -1.06872e-17)
(4.3265 -0.785364 1.09736e-17)
(3.5041 -0.691095 -4.44067e-23)
(2.44998 -0.543572 0)
(1.02286 -0.263872 1.15449e-17)
(-0.172789 0.0658999 1.46316e-21)
(-0.668052 0.272997 1.04032e-21)
(-0.660139 0.327196 -9.79772e-18)
(-0.563365 0.334561 9.42836e-18)
(-0.475863 0.319554 1.39395e-22)
(-0.420368 0.308162 -8.97642e-18)
(-0.37722 0.294188 8.82607e-18)
(-0.281234 0.228474 8.72951e-18)
(-0.19804 0.165093 8.70564e-18)
(-0.15554 0.131755 0)
(-0.141042 0.120661 1.75552e-17)
(-0.141831 0.120726 0)
(-0.14687 0.123045 -2.74042e-22)
(-0.160224 0.132862 9.07476e-18)
(-0.176112 0.145376 0)
(-0.189553 0.155148 -2.81973e-22)
(-0.201739 0.16247 9.34262e-18)
(-0.214007 0.168175 -2.70491e-22)
(-0.229183 0.17483 9.60033e-18)
(-0.244852 0.181525 0)
(-0.262897 0.189554 -1.96942e-17)
(-0.280238 0.196595 0)
(-0.29684 0.201633 -1.0081e-17)
(-0.313836 0.205789 1.02022e-17)
(-0.331572 0.209287 1.03234e-17)
(-0.350157 0.212351 0)
(-0.369136 0.214669 0)
(-0.388836 0.216381 0)
(-0.408737 0.217349 -1.07706e-17)
(-0.429441 0.217614 -3.31702e-22)
(-0.450436 0.217318 -1.09651e-17)
(-0.472003 0.215999 -2.211e-17)
(-0.49522 0.214886 -2.22735e-17)
(-0.519453 0.213476 -1.12112e-17)
(-0.545222 0.212124 -3.44097e-22)
(-0.572717 0.211126 1.13386e-17)
(-0.600579 0.209935 0)
(-0.628252 0.207833 0)
(-0.656937 0.205561 1.14785e-17)
(-0.686478 0.203244 -1.15139e-17)
(-0.718071 0.201429 0)
(-0.749688 0.199925 -5.78437e-18)
(-0.780436 0.197437 0)
(-0.811667 0.194969 5.8034e-18)
(-0.843384 0.192341 5.81034e-18)
(-0.876393 0.190123 0)
(-0.910546 0.188425 0)
(-0.945295 0.187166 -5.82184e-18)
(-0.980078 0.186054 -7.10851e-22)
(-1.01441 0.184861 5.82456e-18)
(-1.04852 0.183323 -5.82328e-18)
(-1.0833 0.181882 5.8225e-18)
(-1.11879 0.180508 5.81944e-18)
(-1.15557 0.179432 -7.10047e-22)
(-1.19344 0.178809 1.17317e-25)
(-1.23155 0.178282 2.09877e-25)
(-1.26958 0.177638 -5.80096e-18)
(-1.30654 0.176486 -1.1588e-17)
(-1.34241 0.174303 5.78486e-18)
(-1.37821 0.171436 0)
(-1.41478 0.168222 0)
(-1.45051 0.164621 -2.87434e-18)
(-1.48356 0.159261 -2.8664e-18)
(-1.51378 0.151868 -6.97082e-22)
(-1.54306 0.142338 2.84773e-18)
(-1.57163 0.13155 0)
(-1.5995 0.118619 -5.64691e-18)
(-1.62729 0.104474 -2.81012e-18)
(-1.65627 0.0886642 0)
(-1.68825 0.0728605 -6.78691e-22)
(-1.72332 0.0567588 1.34228e-21)
(-1.76274 0.0414804 -6.67355e-22)
(-1.80983 0.027601 6.84282e-19)
(-1.86928 0.0188633 3.40514e-19)
(-1.94237 0.0173472 6.80605e-19)
(-2.01012 0.0187103 6.57713e-22)
(-2.05937 0.0187577 3.34782e-19)
(-2.11207 0.0199219 -3.33464e-19)
(-2.16768 0.0252016 -3.3133e-19)
(-2.18617 0.0276842 3.2857e-19)
(-2.17639 0.0133277 1.61363e-19)
(-2.19906 -0.000324129 6.33457e-22)
(-2.25955 -0.000281098 6.18011e-22)
(-2.29267 -0.000501375 -4.44042e-24)
(-2.3241 -0.000586217 -5.89324e-22)
(-2.3501 -0.000672447 5.61648e-22)
(-2.3731 -0.000743994 -5.40935e-22)
(-2.39256 -0.000809833 5.06887e-22)
(-2.40886 -0.000871894 -4.82389e-22)
(-2.42114 -0.000927775 0)
(-2.42913 -0.00098646 0)
(-2.43191 -0.00104004 0)
(-2.42918 -0.00108192 0)
(-2.41861 -0.00112205 6.34361e-22)
(-2.40031 -0.00115092 -2.98619e-22)
(-2.3739 -0.00119304 -2.10046e-21)
(-2.33959 -0.00121951 0)
(-2.29409 -0.00122983 3.37124e-21)
(-2.23323 -0.00122388 -2.98919e-21)
(-2.15022 -0.00119805 0)
(-2.04125 -0.0011577 -3.46847e-22)
(-1.90253 -0.00112804 1.8379e-23)
(-1.72961 -0.00108306 2.1571e-22)
(-1.52202 -0.00102946 0)
(-1.27571 -0.000975494 0)
(-0.989986 -0.000929408 -1.04272e-22)
(-0.662254 -0.00090134 9.55787e-23)
(-0.292451 -0.000899157 0)
(0.118564 -0.00093324 0)
(0.566415 -0.00101601 0)
(1.04264 -0.00116577 0)
(1.53549 -0.00139758 6.57086e-24)
(2.02774 -0.00170994 -6.01386e-24)
(2.50138 -0.00207828 0)
(2.93858 -0.00245969 0)
(3.33009 -0.00281213 0)
(3.66543 -0.00310232 0)
(3.94475 -0.00332428 0)
(4.1672 -0.00348277 0)
(4.3469 -0.00359604 0)
(4.48034 -0.00366869 0)
(4.58496 -0.00372701 -8.24386e-25)
(4.65374 -0.00377844 7.54355e-25)
(4.70984 -0.00381896 0)
(4.73875 -0.0038373 3.00535e-25)
(4.76731 -0.00385629 -4.92498e-25)
(4.77049 -0.00385549 3.59725e-25)
(4.78266 -0.00386388 -1.46964e-25)
(4.76871 -0.00384822 0)
(4.77079 -0.0038493 0)
(4.74541 -0.00382405 0)
(4.74222 -0.00382325 0)
(4.70968 -0.00379353 0)
(4.71502 -0.00380424 0)
(6.91304 0.00224694 -1.51253e-25)
(6.98364 0.00269488 1.50219e-25)
(6.9125 0.00252307 1.16447e-24)
(6.81583 0.00225896 -1.22791e-24)
(6.74908 0.00207774 -2.62557e-24)
(6.66406 0.00186062 5.85052e-24)
(6.58287 0.00167529 -1.03849e-23)
(6.45448 0.00140068 8.06708e-24)
(6.29176 0.00110141 0)
(6.02306 0.000624516 -1.75423e-23)
(5.70522 0.000193578 4.70186e-23)
(5.20399 -0.000409953 7.7848e-24)
(4.67261 -0.000665197 1.13302e-23)
(3.90832 -0.00067537 1.53224e-23)
(3.13281 -8.30169e-05 1.9881e-23)
(2.09866 0.000692947 -2.59588e-22)
(1.43537 0.0021623 4.08951e-21)
(0.210346 0.00228698 -1.01289e-20)
(0.0431351 0.00411673 -7.62704e-17)
(1.76934 0.686901 0)
(3.64307 2.02155 -8.40979e-17)
(6.19782 3.92647 0)
(8.68364 5.36463 2.68839e-17)
(10.5475 5.51896 5.55231e-23)
(11.5614 5.08026 -1.13424e-22)
(12.3147 4.81578 7.25176e-23)
(12.9085 4.42183 -6.23927e-17)
(13.1208 3.83458 -3.67249e-17)
(13.0438 3.2797 -1.27968e-23)
(12.9416 2.84085 4.2765e-17)
(12.8124 2.4857 9.04454e-17)
(12.7283 2.19635 0)
(12.6562 1.95315 5.0251e-17)
(12.6513 1.73451 2.65862e-17)
(12.5856 1.51365 0)
(12.5445 1.30387 0)
(12.4366 1.09647 0)
(12.3721 0.901984 2.56453e-22)
(12.2296 0.707865 -2.68544e-22)
(12.1348 0.524203 1.02743e-20)
(11.9342 0.337122 -4.98925e-18)
(11.7891 0.169986 1.61247e-22)
(11.5777 0.00667349 -1.71576e-22)
(11.4066 -0.148841 1.81555e-22)
(11.1614 -0.295552 -1.94504e-22)
(10.9395 -0.442206 -6.1166e-21)
(10.6465 -0.572075 -7.18969e-18)
(10.3489 -0.710309 -7.63655e-18)
(9.90682 -0.828025 0)
(9.47863 -0.929447 8.55516e-18)
(8.97601 -1.01074 -2.80272e-22)
(8.44516 -1.07473 -9.52173e-18)
(7.77468 -1.11728 1.56208e-22)
(6.89959 -1.11922 1.04737e-17)
(5.86767 -1.05518 -1.08509e-17)
(4.82547 -0.943618 -1.12269e-17)
(3.48217 -0.766382 1.16653e-17)
(1.61631 -0.414622 0)
(-0.0241624 0.0236859 -1.1847e-17)
(-0.770663 0.317044 -1.12401e-17)
(-0.825958 0.409271 -7.12471e-22)
(-0.727465 0.43149 1.57505e-22)
(-0.621609 0.41696 -1.54733e-22)
(-0.550801 0.403424 9.89781e-18)
(-0.494143 0.384852 -9.73527e-18)
(-0.369696 0.299675 -9.63171e-18)
(-0.262455 0.21833 -1.9217e-17)
(-0.207419 0.175489 2.94149e-22)
(-0.188565 0.161262 -9.6905e-18)
(-0.18989 0.161649 0)
(-0.196871 0.164997 9.90995e-18)
(-0.214661 0.178104 0)
(-0.235805 0.194752 0)
(-0.253697 0.207736 0)
(-0.269971 0.217501 -1.03109e-17)
(-0.286454 0.225197 1.04484e-17)
(-0.306715 0.234076 -2.11889e-17)
(-0.32768 0.243041 -3.27628e-22)
(-0.351653 0.253663 2.17299e-17)
(-0.374735 0.262995 3.35431e-22)
(-0.396922 0.26972 1.11202e-17)
(-0.419653 0.275282 -2.25057e-17)
(-0.443375 0.279966 -2.27696e-17)
(-0.468214 0.284057 -1.1514e-17)
(-0.493605 0.287167 3.55233e-22)
(-0.519948 0.289456 -1.17581e-17)
(-0.546603 0.290774 1.18709e-17)
(-0.574321 0.291145 0)
(-0.602474 0.290783 1.20807e-17)
(-0.631448 0.289081 2.43524e-17)
(-0.662554 0.287616 2.45257e-17)
(-0.695027 0.285754 -7.45364e-22)
(-0.729492 0.283944 -1.24122e-17)
(-0.766142 0.282559 -1.24747e-17)
(-0.80329 0.280917 0)
(-0.840271 0.27809 0)
(-0.878555 0.275023 -1.26154e-17)
(-0.917969 0.271895 2.52988e-17)
(-0.959923 0.269383 0)
(-1.00191 0.267284 6.35019e-18)
(-1.04284 0.263907 6.35809e-18)
(-1.08439 0.260556 -6.36524e-18)
(-1.1266 0.256999 0)
(-1.17044 0.253976 0)
(-1.21572 0.251629 0)
(-1.26173 0.249858 1.27443e-17)
(-1.30775 0.24828 0)
(-1.35321 0.246609 0)
(-1.39843 0.244492 0)
(-1.44452 0.242504 -7.75971e-22)
(-1.49151 0.240606 7.75089e-22)
(-1.54012 0.239094 0)
(-1.59005 0.238168 7.72953e-22)
(-1.64023 0.237362 -6.32382e-18)
(-1.69021 0.236392 3.43664e-25)
(-1.73884 0.234756 6.29762e-18)
(-1.78607 0.231766 6.28151e-18)
(-1.83317 0.227874 0)
(-1.88109 0.223498 0)
(-1.92779 0.218598 3.11263e-18)
(-1.97109 0.211382 0)
(-2.01092 0.201506 3.08802e-18)
(-2.04952 0.188808 7.49961e-22)
(-2.08726 0.174453 3.05806e-18)
(-2.12419 0.157268 6.08434e-18)
(-2.16119 0.13849 3.02645e-18)
(-2.19982 0.117513 -7.34523e-22)
(-2.24232 0.0965434 0)
(-2.28886 0.0751838 -1.48404e-18)
(-2.34109 0.0549322 7.37763e-19)
(-2.403 0.0365608 -7.32858e-19)
(-2.47946 0.0250288 -3.63735e-19)
(-2.57376 0.0230749 -3.63588e-19)
(-2.65959 0.0248429 0)
(-2.72276 0.0249012 0)
(-2.78971 0.0264924 3.52655e-19)
(-2.85824 0.0334019 3.49704e-19)
(-2.88146 0.0365409 8.66835e-24)
(-2.87226 0.0176572 1.72998e-19)
(-2.90158 -0.000133483 -2.66653e-21)
(-2.97703 5.58557e-05 1.3076e-21)
(-3.01845 -0.000226847 0)
(-3.05748 -0.000277792 0)
(-3.0896 -0.000334236 -1.17339e-21)
(-3.11773 -0.000365879 1.12799e-21)
(-3.14118 -0.000389788 -1.05498e-21)
(-3.16038 -0.00040913 1.00207e-21)
(-3.17423 -0.000425218 0)
(-3.18239 -0.000448567 0)
(-3.18366 -0.000452853 7.88884e-22)
(-3.17753 -0.000468666 -7.32465e-22)
(-3.1611 -0.000484832 0)
(-3.13445 -0.000494654 -8.87313e-22)
(-3.09691 -0.000534657 2.69386e-21)
(-3.04858 -0.0005486 -4.72318e-22)
(-2.98527 -0.000549206 8.55481e-22)
(-2.90171 -0.00055661 -3.40756e-21)
(-2.78943 -0.000584658 2.32131e-21)
(-2.6437 -0.000649435 2.94882e-22)
(-2.45948 -0.000783231 2.35106e-22)
(-2.231 -0.000927126 -2.15355e-22)
(-1.95767 -0.00107509 0)
(-1.63422 -0.0012234 0)
(-1.25975 -0.00136098 1.03551e-22)
(-0.830875 -0.00148046 -9.48059e-23)
(-0.347512 -0.00156829 0)
(0.189228 -0.00161161 0)
(0.773671 -0.00159351 0)
(1.39487 -0.00149866 -1.48027e-23)
(2.03761 -0.00131454 1.35414e-23)
(2.67969 -0.00104856 0)
(3.29791 -0.00073885 0)
(3.86911 -0.000442719 -4.78631e-24)
(4.38121 -0.00019569 -1.06124e-24)
(4.82044 -8.68324e-06 5.0136e-24)
(5.18678 0.000134738 0)
(5.47884 0.000246517 0)
(5.71479 0.00035537 0)
(5.89018 0.000447593 0)