/*--------------------------------*- C++ -*----------------------------------*\
| =========                 |                                                 |
| \\      /  F ield         | OpenFOAM: The Open Source CFD Toolbox           |
|  \\    /   O peration     | Version:  2212                                  |
|   \\  /    A nd           | Website:  www.openfoam.com                      |
|    \\/     M anipulation  |                                                 |
\*---------------------------------------------------------------------------*/
FoamFile
{
    version     2.0;
    format      ascii;
    arch        "LSB;label=32;scalar=64";
    class       volVectorField;
    location    "5000";
    object      wallShearStress;
}
// * * * * * * * * * * * * * * * * * * * * * * * * * * * * * * * * * * * * * //

dimensions      [0 2 -2 0 0 0 0];

internalField   uniform (0 0 0);

boundaryField
{
    back
    {
        type            empty;
    }
    down
    {
        type            calculated;
        value           nonuniform List<vector> 
192
(
(-1.64454 -0.000314376 -1.02615e-25)
(-1.66426 -0.00029549 -2.92156e-25)
(-1.64623 -0.000298909 4.05215e-25)
(-1.62195 -0.000299039 -1.21661e-46)
(-1.60515 -0.000294418 -1.35542e-45)
(-1.58368 -0.000278267 -4.00785e-24)
(-1.56289 -0.000236496 9.25064e-24)
(-1.52999 -0.000154504 -5.4245e-24)
(-1.48781 9.96192e-06 2.20041e-45)
(-1.41883 0.0002565 0)
(-1.33657 0.000647151 1.31028e-44)
(-1.20897 0.00114443 2.56345e-23)
(-1.0731 0.00177642 7.29237e-24)
(-0.88181 0.00244323 -4.62044e-23)
(-0.688222 0.00311215 1.05688e-44)
(-0.438544 0.00351428 1.95249e-43)
(-0.291795 0.00279659 1.16083e-21)
(-0.00160718 0.00291326 1.51315e-21)
(0.0322116 0.00758828 -2.91366e-17)
(-0.398244 -0.156407 -1.71322e-16)
(-0.909658 -0.505546 -2.05339e-22)
(-1.64863 -1.03986 8.01712e-17)
(-2.36796 -1.45265 3.4757e-34)
(-2.87066 -1.49241 1.8013e-39)
(-3.12323 -1.3643 3.00927e-36)
(-3.35297 -1.3031 1.53725e-16)
(-3.54614 -1.20651 0)
(-3.60764 -1.04623 -6.4291e-17)
(-3.5915 -0.895073 -7.132e-17)
(-3.58082 -0.77831 -1.41723e-22)
(-3.56389 -0.684 -1.63154e-16)
(-3.56081 -0.6073 8.62831e-17)
(-3.56145 -0.542787 1.71129e-22)
(-3.58071 -0.484246 -2.86986e-42)
(-3.57831 -0.423816 -7.52316e-37)
(-3.58157 -0.365763 1.09218e-16)
(-3.563 -0.307748 2.22917e-22)
(-3.55669 -0.252946 3.07354e-17)
(-3.52525 -0.197919 -2.82119e-37)
(-3.50659 -0.145397 1.6472e-22)
(-3.45264 -0.0916107 -9.18364e-18)
(-3.41532 -0.0434273 -5.93651e-22)
(-3.35609 0.00368264 3.23014e-19)
(-3.30715 0.048724 6.22089e-34)
(-3.23323 0.0910574 -5.80992e-18)
(-3.1641 0.133369 -2.35099e-38)
(-3.07133 0.170434 -1.79239e-34)
(-2.97149 0.209625 1.38194e-17)
(-2.82249 0.241823 1.45558e-17)
(-2.67834 0.268699 -1.52838e-17)
(-2.50973 0.288831 5.41272e-22)
(-2.32927 0.30309 -1.67005e-17)
(-2.09814 0.30908 -7.52316e-37)
(-1.79606 0.30019 1.7864e-17)
(-1.4535 0.271108 6.67112e-23)
(-1.12208 0.229727 -1.06351e-22)
(-0.701823 0.166215 1.98683e-23)
(-0.162084 0.0530141 -4.895e-23)
(0.237629 -0.0695165 1.75791e-17)
(0.354925 -0.136884 1.65583e-17)
(0.303562 -0.146475 1.60196e-17)
(0.246216 -0.144103 1.21274e-22)
(0.20592 -0.136866 -1.18933e-22)
(0.183268 -0.133036 1.55443e-17)
(0.166553 -0.128591 -1.54422e-17)
(0.123621 -0.0997408 -1.53549e-17)
(0.0849487 -0.0706961 1.53154e-17)
(0.0651801 -0.0552844 -2.33542e-22)
(0.0582921 -0.0499599 -1.53032e-17)
(0.0577862 -0.0492915 -1.53064e-17)
(0.0588569 -0.0494327 -1.29169e-25)
(0.0636465 -0.0528729 1.53172e-17)
(0.0695264 -0.0574731 1.53204e-17)
(0.0742548 -0.0608511 1.05324e-35)
(0.0781895 -0.0630396 2.33934e-22)
(0.0818044 -0.0643574 1.53311e-17)
(0.0864477 -0.0660041 -3.00927e-36)
(0.0911719 -0.0676444 -1.53367e-17)
(0.0968609 -0.0698685 -3.06788e-17)
(0.102164 -0.0716912 -3.00927e-36)
(0.106933 -0.0726536 -4.64035e-22)
(0.111701 -0.0732596 1.53412e-17)
(0.116614 -0.0736166 4.68256e-22)
(0.121753 -0.073842 3.06814e-17)
(0.126933 -0.0738201 0)
(0.132305 -0.0736243 -1.53405e-17)
(0.137666 -0.0732026 -1.534e-17)
(0.143255 -0.0725876 -3.00927e-36)
(0.148895 -0.0718298 1.53398e-17)
(0.15464 -0.0707584 -1.53405e-17)
(0.160999 -0.0698465 3.06827e-17)
(0.167689 -0.068894 -1.53426e-17)
(0.174939 -0.0680325 -3.00927e-36)
(0.182865 -0.0673725 1.53455e-17)
(0.19093 -0.0666963 -1.50463e-36)
(0.198883 -0.065744 -1.50463e-36)
(0.207222 -0.0647853 1.53471e-17)
(0.215871 -0.0638475 -1.53473e-17)
(0.225345 -0.0631393 0)
(0.234862 -0.0625568 -7.67287e-18)
(0.244042 -0.0616611 7.58453e-25)
(0.253425 -0.0607937 7.67061e-18)
(0.262974 -0.0598882 -7.66915e-18)
(0.273009 -0.0591357 -7.66736e-18)
(0.28348 -0.0585696 7.52316e-37)
(0.294185 -0.0581557 7.66174e-18)
(0.304926 -0.0577974 7.65911e-18)
(0.315494 -0.0574107 -4.67215e-22)
(0.32597 -0.0569124 9.3376e-22)
(0.336683 -0.0564501 -4.66538e-22)
(0.347632 -0.0560128 7.63832e-18)
(0.359051 -0.0556816 7.52316e-37)
(0.370883 -0.0555067 -7.6246e-18)
(0.382823 -0.0553704 7.61621e-18)
(0.394784 -0.055208 7.60669e-18)
(0.40639 -0.0548851 -7.59582e-18)
(0.417638 -0.0542366 7.58408e-18)
(0.428915 -0.0533793 3.76158e-37)
(0.440627 -0.052443 3.77891e-18)
(0.452148 -0.0514004 -4.58466e-22)
(0.46283 -0.049806 9.16611e-22)
(0.472556 -0.0475566 -9.1648e-22)
(0.482146 -0.0446475 4.57471e-22)
(0.491593 -0.0413426 -4.55687e-22)
(0.500959 -0.037364 4.52362e-22)
(0.510371 -0.0329889 9.06954e-22)
(0.520359 -0.0280799 -3.70956e-18)
(0.531489 -0.0231624 2.58609e-37)
(0.543776 -0.0181332 -1.84592e-18)
(0.557515 -0.0133347 -8.98858e-22)
(0.573972 -0.0089644 9.20743e-19)
(0.595135 -0.00628081 -4.60167e-19)
(0.62053 -0.00597297 4.5787e-19)
(0.643952 -0.006613 2.26649e-35)
(0.660657 -0.00676367 4.52743e-19)
(0.678857 -0.00727813 4.5047e-19)
(0.699095 -0.00930546 8.95123e-19)
(0.705115 -0.0102846 -8.64481e-22)
(0.700622 -0.00547105 4.40522e-24)
(0.709985 -0.00104416 8.56981e-22)
(0.731954 -0.0012698 -8.40374e-22)
(0.743766 -0.00137522 6.03804e-24)
(0.755104 -0.00150173 1.59849e-21)
(0.764522 -0.00161641 -7.722e-22)
(0.772978 -0.00173444 -2.39299e-42)
(0.780274 -0.00185356 0)
(0.786582 -0.00197724 -1.70453e-42)
(0.791611 -0.00210291 6.0706e-22)
(0.795306 -0.00223419 -5.72171e-22)
(0.79731 -0.00236678 -1.49032e-42)
(0.797611 -0.00250361 0)
(0.795372 -0.0026385 -2.1377e-43)
(0.790506 -0.0027728 9.95001e-23)
(0.782074 -0.00290227 -3.64299e-22)
(0.769553 -0.00302488 -3.26942e-22)
(0.752505 -0.00313527 2.80089e-22)
(0.730678 -0.00323864 -2.58388e-22)
(0.702985 -0.00332996 -4.42282e-22)
(0.668767 -0.00340994 1.85683e-22)
(0.625964 -0.0034673 -1.70729e-22)
(0.572139 -0.00348068 -1.49205e-43)
(0.507094 -0.00344757 0)
(0.429509 -0.00336156 3.3421e-44)
(0.339179 -0.00322286 -7.0403e-23)
(0.235255 -0.0030275 6.4547e-23)
(0.117715 -0.0027758 3.96542e-23)
(-0.0131588 -0.00247097 -3.63336e-23)
(-0.155935 -0.00212349 3.90285e-45)
(-0.307833 -0.00175291 0)
(-0.465012 -0.00138264 0)
(-0.621888 -0.00103892 0)
(-0.772608 -0.000746596 0)
(-0.911478 -0.000515453 0)
(-1.03557 -0.000344867 1.75451e-45)
(-1.14159 -0.000233851 3.57122e-24)
(-1.22959 -0.000177894 -3.26838e-24)
(-1.29943 -0.000159539 2.58997e-24)
(-1.35571 -0.000162673 -4.39517e-24)
(-1.39734 -0.000180194 1.85309e-24)
(-1.4299 -0.000203431 -1.11572e-24)
(-1.45124 -0.000225676 1.02093e-24)
(-1.46863 -0.000245057 -5.69343e-25)
(-1.47753 -0.000258724 5.20954e-25)
(-1.48637 -0.000269011 -2.28395e-46)
(-1.48726 -0.000274659 0)
(-1.49102 -0.000278862 0)
(-1.48658 -0.000279811 0)
(-1.48721 -0.000281033 0)
(-1.4792 -0.000279843 -4.43221e-49)
(-1.4782 -0.000280189 -1.73821e-27)
(-1.46793 -0.000278276 1.59036e-27)
(-1.46955 -0.000278638 -3.34867e-49)
)
;
    }
    front
    {
        type            empty;
    }
    inlet
    {
        type            calculated;
        value           uniform (0 0 0);
    }
    outlet
    {
        type            calculated;
        value           uniform (0 0 0);
    }
    up
    {
        type            calculated;
        value           uniform (0 0 0);
    }
}


// ************************************************************************* //
