/*--------------------------------*- C++ -*----------------------------------*\
| =========                 |                                                 |
| \\      /  F ield         | OpenFOAM: The Open Source CFD Toolbox           |
|  \\    /   O peration     | Version:  2212                                  |
|   \\  /    A nd           | Website:  www.openfoam.com                      |
|    \\/     M anipulation  |                                                 |
\*---------------------------------------------------------------------------*/
FoamFile
{
    version     2.0;
    format      ascii;
    arch        "LSB;label=32;scalar=64";
    class       volScalarField;
    location    "5000";
    object      yPlus;
}
// * * * * * * * * * * * * * * * * * * * * * * * * * * * * * * * * * * * * * //

dimensions      [0 0 0 0 0 0 0];

internalField   uniform 0;

boundaryField
{
    back
    {
        type            empty;
    }
    down
    {
        type            calculated;
        value           nonuniform List<scalar> 
192
(
0.557682
0.561016
0.557967
0.553838
0.550962
0.547265
0.54366
0.537909
0.530441
0.518
0.502759
0.478159
0.45049
0.408369
0.360771
0.287981
0.234542
0.0226959
0.0829889
0.301217
0.457378
0.606901
0.710636
0.760804
0.773254
0.7848
0.791425
0.783291
0.768746
0.756908
0.746211
0.738289
0.731755
0.727708
0.721906
0.717138
0.710645
0.705749
0.698637
0.693144
0.68446
0.677946
0.669571
0.662563
0.653377
0.644868
0.634296
0.622973
0.606602
0.590785
0.572106
0.551699
0.524323
0.486007
0.43847
0.386774
0.307132
0.148993
0.178502
0.21878
0.201902
0.181066
0.165198
0.15573
0.148532
0.128326
0.106998
0.0944216
0.0899678
0.0903459
0.0920285
0.0964835
0.101575
0.105755
0.109381
0.112819
0.116939
0.121032
0.125666
0.129956
0.133866
0.137722
0.141609
0.145558
0.149451
0.153369
0.157188
0.161041
0.164822
0.168557
0.172514
0.176531
0.18072
0.185135
0.189496
0.193674
0.197918
0.202194
0.206744
0.211213
0.21541
0.2196
0.223761
0.228045
0.232433
0.236843
0.241191
0.245396
0.249482
0.25359
0.257717
0.261956
0.266291
0.270602
0.274853
0.278905
0.282738
0.286495
0.290323
0.294022
0.297325
0.300187
0.302851
0.305355
0.307664
0.309859
0.31206
0.31452
0.317216
0.32029
0.324124
0.329484
0.336337
0.342721
0.347158
0.351987
0.357557
0.359322
0.35729
0.358735
0.364245
0.367172
0.36996
0.37226
0.374313
0.376075
0.377592
0.378797
0.37968
0.380158
0.38023
0.379696
0.378601
0.377154
0.375517
0.373261
0.369763
0.364084
0.355613
0.344066
0.328941
0.30968
0.285007
0.253271
0.210933
0.149216
0.0501416
0.171731
0.241282
0.296549
0.342942
0.382247
0.415181
0.442542
0.464643
0.482218
0.495725
0.506346
0.514062
0.520017
0.523882
0.527012
0.528606
0.530185
0.530344
0.531014
0.530222
0.530335
0.528905
0.528727
0.526887
0.527177
)
;
    }
    front
    {
        type            empty;
    }
    inlet
    {
        type            calculated;
        value           uniform 0;
    }
    outlet
    {
        type            calculated;
        value           uniform 0;
    }
    up
    {
        type            calculated;
        value           nonuniform List<scalar> 
192
(
25.4749
25.7607
25.9327
26.2367
26.3985
26.6485
26.7919
27.0046
27.1445
27.3552
27.535
27.8078
28.1023
28.5272
29.0314
29.707
30.5121
31.5191
32.6883
34.0714
35.629
37.3961
39.3352
41.4718
43.7773
46.2726
48.9506
51.852
54.9973
58.2923
61.5209
63.498
66.4508
65.1316
68.0727
118.233
136.998
134.744
104.375
28.7033
28.7469
28.2054
26.6432
26.3138
24.8009
24.4441
23.0632
22.5897
21.3666
20.7932
19.6992
19.051
18.046
17.3509
16.3909
15.67
14.7179
13.9836
13.0087
12.2579
11.2311
10.4425
9.32096
8.45269
7.14293
6.08867
4.26661
2.36283
3.44742
4.82807
6.283
7.0559
8.04918
8.60911
9.3856
9.82596
10.4691
10.8303
11.3812
11.6857
12.1684
12.4299
12.8596
13.0875
13.4751
13.6762
14.0296
14.2093
14.5345
14.6967
14.9983
15.1462
15.428
15.5646
15.8301
15.9577
16.4259
16.3303
16.5707
16.6872
16.9187
17.0328
17.2575
17.3707
17.5915
17.7097
17.9257
18.0328
18.27
18.472
6.87906
23.0487
23.0838
23.0986
23.1572
23.2148
23.3204
23.4123
23.5473
23.6744
23.8469
24.0083
24.2178
24.4122
24.6561
24.8905
25.187
25.4622
25.7986
26.1321
26.5854
27.0981
27.6701
12.2303
7.6392
11.0796
12.8614
15.0041
16.2461
17.8813
18.8459
20.186
20.9693
22.1086
22.7571
23.7479
24.286
25.1569
25.5976
26.363
26.7196
27.4162
27.6651
28.1534
22.1714
8.63411
10.0294
11.6605
11.5149
11.8534
10.7804
10.1215
25.3209
27.388
25.2181
23.6474
21.0648
18.8452
14.7465
12.2285
5.28129
49.0306
78.9865
86.3173
76.3942
42.326
41.5719
36.8614
28.8158
24.5026
17.546
14.5283
9.34922
7.20011
3.24346
0.707282
3.47421
3.06697
3.66445
2.3475
3.0634
1.90158
)
;
    }
}


// ************************************************************************* //
