/*--------------------------------*- C++ -*----------------------------------*\
| =========                 |                                                 |
| \\      /  F ield         | OpenFOAM: The Open Source CFD Toolbox           |
|  \\    /   O peration     | Version:  2212                                  |
|   \\  /    A nd           | Website:  www.openfoam.com                      |
|    \\/     M anipulation  |                                                 |
\*---------------------------------------------------------------------------*/
FoamFile
{
    version     2.0;
    format      ascii;
    arch        "LSB;label=32;scalar=64";
    class       volVectorField;
    location    "0";
    object      C;
}
// * * * * * * * * * * * * * * * * * * * * * * * * * * * * * * * * * * * * * //

dimensions      [0 1 0 0 0 0 0];

internalField   nonuniform List<vector> 
15300
(
(-0.09697366 0.14451142 0.03355)
(-0.097012517 0.13041721 0.03355)
(-0.097046749 0.11800027 0.03355)
(-0.097077055 0.10700742 0.03355)
(-0.097104002 0.097233185 0.03355)
(-0.097128054 0.088509034 0.03355)
(-0.097149595 0.08069543 0.03355)
(-0.097168948 0.073675843 0.03355)
(-0.097186381 0.067352196 0.03355)
(-0.097202126 0.061641347 0.03355)
(-0.097216376 0.056472351 0.03355)
(-0.097229301 0.05178431 0.03355)
(-0.097241044 0.047524656 0.03355)
(-0.097251732 0.043647779 0.03355)
(-0.097261475 0.040113921 0.03355)
(-0.097270368 0.036888272 0.03355)
(-0.097278495 0.03394023 0.03355)
(-0.097285932 0.031242793 0.03355)
(-0.097292743 0.028772051 0.03355)
(-0.097298989 0.026506763 0.03355)
(-0.09730472 0.024428001 0.03355)
(-0.097309983 0.022518856 0.03355)
(-0.09731482 0.020764178 0.03355)
(-0.09731927 0.01915036 0.03355)
(-0.097323364 0.017665159 0.03355)
(-0.097327135 0.016297529 0.03355)
(-0.097330608 0.015037489 0.03355)
(-0.097333811 0.013876004 0.03355)
(-0.097336764 0.012804878 0.03355)
(-0.097339488 0.011816667 0.03355)
(-0.097342002 0.010904602 0.03355)
(-0.097344324 0.010062514 0.03355)
(-0.097346468 0.0092847785 0.03355)
(-0.097348449 0.0085662593 0.03355)
(-0.09735028 0.007902261 0.03355)
(-0.097351972 0.0072884873 0.03355)
(-0.097353536 0.0067210032 0.03355)
(-0.097354983 0.0061962011 0.03355)
(-0.097356321 0.0057107712 0.03355)
(-0.09735756 0.0052616744 0.03355)
(-0.097358705 0.0048461185 0.03355)
(-0.097359765 0.0044615358 0.03355)
(-0.097360747 0.0041055644 0.03355)
(-0.097361655 0.0037760298 0.03355)
(-0.097362496 0.0034709294 0.03355)
(-0.097363275 0.0031884177 0.03355)
(-0.097363997 0.0029267934 0.03355)
(-0.097364665 0.0026844874 0.03355)
(-0.097365283 0.0024600521 0.03355)
(-0.097365857 0.0022521512 0.03355)
(-0.097366387 0.0020595509 0.03355)
(-0.097366879 0.0018811117 0.03355)
(-0.097367335 0.001715781 0.03355)
(-0.097367758 0.0015625857 0.03355)
(-0.097368149 0.0014206268 0.03355)
(-0.097368512 0.0012890726 0.03355)
(-0.097368848 0.0011671545 0.03355)
(-0.097369159 0.001054161 0.03355)
(-0.097369448 0.00094943439 0.03355)
(-0.097369716 0.00085236579 0.03355)
(-0.097369964 0.00076239182 0.03355)
(-0.097370194 0.000678991 0.03355)
(-0.097370407 0.00060168061 0.03355)
(-0.097370604 0.00053001372 0.03355)
(-0.097370787 0.0004635765 0.03355)
(-0.097370957 0.00040198575 0.03355)
(-0.097371115 0.00034488653 0.03355)
(-0.097371261 0.00029195013 0.03355)
(-0.097371396 0.00024287204 0.03355)
(-0.097371521 0.00019737016 0.03355)
(-0.097371638 0.00015518317 0.03355)
(-0.097371745 0.00011606891 0.03355)
(-0.097371845 7.9803034e-05 0.03355)
(-0.097371938 4.6177633e-05 0.03355)
(-0.097372024 1.500005e-05 0.03355)
(-0.0883028 0.14451014 0.03355)
(-0.088412109 0.1304162 0.03355)
(-0.08850841 0.11799947 0.03355)
(-0.088593666 0.10700679 0.03355)
(-0.088669472 0.097232676 0.03355)
(-0.088737133 0.088508623 0.03355)
(-0.088797733 0.080695095 0.03355)
(-0.088852174 0.07367557 0.03355)
(-0.088901219 0.067351973 0.03355)
(-0.08894551 0.061641163 0.03355)
(-0.088985599 0.056472199 0.03355)
(-0.089021958 0.051784184 0.03355)
(-0.089054995 0.047524551 0.03355)
(-0.089085063 0.043647691 0.03355)
(-0.08911247 0.040113848 0.03355)
(-0.089137487 0.03688821 0.03355)
(-0.089160352 0.033940179 0.03355)
(-0.089181272 0.03124275 0.03355)
(-0.089200434 0.028772015 0.03355)
(-0.089218003 0.026506732 0.03355)
(-0.089234126 0.024427975 0.03355)
(-0.089248932 0.022518834 0.03355)
(-0.089262541 0.020764159 0.03355)
(-0.089275058 0.019150344 0.03355)
(-0.089286576 0.017665145 0.03355)
(-0.089297183 0.016297517 0.03355)
(-0.089306956 0.015037479 0.03355)
(-0.089315964 0.013875995 0.03355)
(-0.089324271 0.01280487 0.03355)
(-0.089331936 0.011816661 0.03355)
(-0.089339009 0.010904597 0.03355)
(-0.08934554 0.01006251 0.03355)
(-0.089351572 0.0092847748 0.03355)
(-0.089357145 0.0085662561 0.03355)
(-0.089362295 0.0079022583 0.03355)
(-0.089367055 0.007288485 0.03355)
(-0.089371456 0.0067210012 0.03355)
(-0.089375526 0.0061961994 0.03355)
(-0.089379291 0.0057107697 0.03355)
(-0.089382774 0.0052616732 0.03355)
(-0.089385997 0.0048461174 0.03355)
(-0.08938898 0.0044615349 0.03355)
(-0.089391741 0.0041055636 0.03355)
(-0.089394297 0.0037760291 0.03355)
(-0.089396663 0.0034709288 0.03355)
(-0.089398854 0.0031884172 0.03355)
(-0.089400883 0.0029267929 0.03355)
(-0.089402762 0.0026844871 0.03355)
(-0.089404503 0.0024600518 0.03355)
(-0.089406115 0.0022521509 0.03355)
(-0.089407609 0.0020595507 0.03355)
(-0.089408993 0.0018811115 0.03355)
(-0.089410275 0.0017157808 0.03355)
(-0.089411464 0.0015625856 0.03355)
(-0.089412565 0.0014206267 0.03355)
(-0.089413585 0.0012890725 0.03355)
(-0.08941453 0.0011671544 0.03355)
(-0.089415407 0.0010541609 0.03355)
(-0.089416219 0.00094943432 0.03355)
(-0.089416972 0.00085236573 0.03355)
(-0.08941767 0.00076239177 0.03355)
(-0.089418316 0.00067899096 0.03355)
(-0.089418916 0.00060168057 0.03355)
(-0.089419472 0.00053001369 0.03355)
(-0.089419987 0.00046357648 0.03355)
(-0.089420465 0.00040198572 0.03355)
(-0.089420908 0.00034488651 0.03355)
(-0.089421318 0.00029195011 0.03355)
(-0.089421699 0.00024287202 0.03355)
(-0.089422052 0.00019737015 0.03355)
(-0.089422379 0.00015518316 0.03355)
(-0.089422682 0.0001160689 0.03355)
(-0.089422964 7.9803026e-05 0.03355)
(-0.089423224 4.6177626e-05 0.03355)
(-0.089423466 1.5000044e-05 0.03355)
(-0.080361306 0.14450884 0.03355)
(-0.080527433 0.13041518 0.03355)
(-0.080673791 0.11799866 0.03355)
(-0.080803363 0.10700614 0.03355)
(-0.080918573 0.09723216 0.03355)
(-0.081021405 0.088508206 0.03355)
(-0.081113505 0.080694757 0.03355)
(-0.081196246 0.073675295 0.03355)
(-0.081270784 0.067351747 0.03355)
(-0.081338098 0.061640977 0.03355)
(-0.081399026 0.056472046 0.03355)
(-0.081454285 0.051784057 0.03355)
(-0.081504495 0.047524445 0.03355)
(-0.081550193 0.043647603 0.03355)
(-0.081591847 0.040113774 0.03355)
(-0.081629869 0.036888149 0.03355)
(-0.081664618 0.033940127 0.03355)
(-0.081696414 0.031242707 0.03355)
(-0.081725537 0.028771978 0.03355)
(-0.081752238 0.026506701 0.03355)
(-0.081776741 0.024427949 0.03355)
(-0.081799245 0.022518812 0.03355)
(-0.081819928 0.02076414 0.03355)
(-0.081838951 0.019150329 0.03355)
(-0.081856457 0.017665132 0.03355)
(-0.081872578 0.016297506 0.03355)
(-0.08188743 0.01503747 0.03355)
(-0.081901121 0.013875987 0.03355)
(-0.081913747 0.012804863 0.03355)
(-0.081925395 0.011816655 0.03355)
(-0.081936146 0.010904592 0.03355)
(-0.081946072 0.010062505 0.03355)
(-0.081955239 0.0092847711 0.03355)
(-0.081963709 0.0085662529 0.03355)
(-0.081971536 0.0079022555 0.03355)
(-0.08197877 0.0072884827 0.03355)
(-0.08198546 0.0067209992 0.03355)
(-0.081991646 0.0061961977 0.03355)
(-0.081997367 0.0057107682 0.03355)
(-0.082002661 0.0052616719 0.03355)
(-0.082007559 0.0048461163 0.03355)
(-0.082012093 0.004461534 0.03355)
(-0.082016289 0.0041055628 0.03355)
(-0.082020173 0.0037760285 0.03355)
(-0.082023769 0.0034709282 0.03355)
(-0.082027099 0.0031884167 0.03355)
(-0.082030183 0.0029267925 0.03355)
(-0.082033039 0.0026844867 0.03355)
(-0.082035685 0.0024600515 0.03355)
(-0.082038135 0.0022521507 0.03355)
(-0.082040406 0.0020595504 0.03355)
(-0.082042509 0.0018811113 0.03355)
(-0.082044458 0.0017157806 0.03355)
(-0.082046264 0.0015625855 0.03355)
(-0.082047937 0.0014206265 0.03355)
(-0.082049488 0.0012890724 0.03355)
(-0.082050925 0.0011671543 0.03355)
(-0.082052257 0.0010541609 0.03355)
(-0.082053491 0.00094943425 0.03355)
(-0.082054635 0.00085236567 0.03355)
(-0.082055696 0.00076239172 0.03355)
(-0.082056679 0.00067899092 0.03355)
(-0.08205759 0.00060168054 0.03355)
(-0.082058435 0.00053001365 0.03355)
(-0.082059218 0.00046357645 0.03355)
(-0.082059944 0.0004019857 0.03355)
(-0.082060617 0.00034488649 0.03355)
(-0.082061241 0.00029195009 0.03355)
(-0.082061819 0.00024287201 0.03355)
(-0.082062356 0.00019737014 0.03355)
(-0.082062853 0.00015518315 0.03355)
(-0.082063314 0.00011606889 0.03355)
(-0.082063742 7.9803017e-05 0.03355)
(-0.082064138 4.6177619e-05 0.03355)
(-0.082064505 1.5000038e-05 0.03355)
(-0.07308352 0.14450751 0.03355)
(-0.073294502 0.13041414 0.03355)
(-0.073480379 0.11799784 0.03355)
(-0.073644938 0.10700549 0.03355)
(-0.073791256 0.097231636 0.03355)
(-0.073921855 0.088507784 0.03355)
(-0.074038824 0.080694415 0.03355)
(-0.074143906 0.073675016 0.03355)
(-0.074238571 0.067351519 0.03355)
(-0.074324063 0.061640789 0.03355)
(-0.074401443 0.056471891 0.03355)
(-0.074471623 0.051783929 0.03355)
(-0.074535391 0.047524339 0.03355)
(-0.074593428 0.043647515 0.03355)
(-0.074646331 0.0401137 0.03355)
(-0.074694619 0.036888087 0.03355)
(-0.074738752 0.033940075 0.03355)
(-0.074779133 0.031242663 0.03355)
(-0.074816121 0.028771942 0.03355)
(-0.074850033 0.02650667 0.03355)
(-0.074881152 0.024427923 0.03355)
(-0.074909732 0.02251879 0.03355)
(-0.074936 0.020764122 0.03355)
(-0.07496016 0.019150313 0.03355)
(-0.074982394 0.017665118 0.03355)
(-0.075002867 0.016297494 0.03355)
(-0.075021731 0.01503746 0.03355)
(-0.075039118 0.013875979 0.03355)
(-0.075055153 0.012804856 0.03355)
(-0.075069947 0.011816649 0.03355)
(-0.075083601 0.010904587 0.03355)
(-0.075096207 0.010062501 0.03355)
(-0.07510785 0.0092847674 0.03355)
(-0.075118607 0.0085662497 0.03355)
(-0.075128547 0.0079022528 0.03355)
(-0.075137735 0.0072884803 0.03355)
(-0.075146231 0.0067209972 0.03355)
(-0.075154087 0.006196196 0.03355)
(-0.075161354 0.0057107668 0.03355)
(-0.075168077 0.0052616707 0.03355)
(-0.075174298 0.0048461153 0.03355)
(-0.075180056 0.0044615331 0.03355)
(-0.075185385 0.0041055621 0.03355)
(-0.075190318 0.0037760278 0.03355)
(-0.075194885 0.0034709276 0.03355)
(-0.075199115 0.0031884162 0.03355)
(-0.075203031 0.0029267921 0.03355)
(-0.075206659 0.0026844863 0.03355)
(-0.075210019 0.0024600512 0.03355)
(-0.075213131 0.0022521504 0.03355)
(-0.075216014 0.0020595502 0.03355)
(-0.075218686 0.0018811111 0.03355)
(-0.075221161 0.0017157805 0.03355)
(-0.075223454 0.0015625853 0.03355)
(-0.075225579 0.0014206264 0.03355)
(-0.075227549 0.0012890723 0.03355)
(-0.075229374 0.0011671542 0.03355)
(-0.075231065 0.0010541608 0.03355)
(-0.075232633 0.00094943419 0.03355)
(-0.075234086 0.00085236562 0.03355)
(-0.075235433 0.00076239167 0.03355)
(-0.075236682 0.00067899087 0.03355)
(-0.075237839 0.0006016805 0.03355)
(-0.075238912 0.00053001362 0.03355)
(-0.075239907 0.00046357642 0.03355)
(-0.075240829 0.00040198567 0.03355)
(-0.075241683 0.00034488647 0.03355)
(-0.075242476 0.00029195008 0.03355)
(-0.075243211 0.00024287199 0.03355)
(-0.075243892 0.00019737012 0.03355)
(-0.075244523 0.00015518313 0.03355)
(-0.075245109 0.00011606888 0.03355)
(-0.075245652 7.9803009e-05 0.03355)
(-0.075246155 4.6177612e-05 0.03355)
(-0.075246622 1.5000032e-05 0.03355)
(-0.06640928 0.14450614 0.03355)
(-0.066654639 0.13041307 0.03355)
(-0.066870802 0.117997 0.03355)
(-0.067062176 0.10700482 0.03355)
(-0.067232336 0.097231104 0.03355)
(-0.067384216 0.088507356 0.03355)
(-0.067520245 0.080694069 0.03355)
(-0.067642451 0.073674734 0.03355)
(-0.067752542 0.067351288 0.03355)
(-0.067851964 0.0616406 0.03355)
(-0.067941954 0.056471735 0.03355)
(-0.068023571 0.0517838 0.03355)
(-0.06809773 0.047524232 0.03355)
(-0.068165225 0.043647426 0.03355)
(-0.068226748 0.040113626 0.03355)
(-0.068282905 0.036888025 0.03355)
(-0.06833423 0.033940023 0.03355)
(-0.068381192 0.03124262 0.03355)
(-0.068424207 0.028771905 0.03355)
(-0.068463645 0.026506639 0.03355)
(-0.068499836 0.024427897 0.03355)
(-0.068533073 0.022518768 0.03355)
(-0.068563622 0.020764103 0.03355)
(-0.068591718 0.019150297 0.03355)
(-0.068617576 0.017665105 0.03355)
(-0.068641386 0.016297483 0.03355)
(-0.068663323 0.01503745 0.03355)
(-0.068683544 0.013875971 0.03355)
(-0.068702192 0.012804849 0.03355)
(-0.068719397 0.011816643 0.03355)
(-0.068735276 0.010904581 0.03355)
(-0.068749937 0.010062497 0.03355)
(-0.068763477 0.0092847636 0.03355)
(-0.068775986 0.0085662465 0.03355)
(-0.068787546 0.0079022501 0.03355)
(-0.068798232 0.007288478 0.03355)
(-0.068808112 0.0067209952 0.03355)
(-0.068817249 0.0061961942 0.03355)
(-0.0688257 0.0057107653 0.03355)
(-0.068833519 0.0052616694 0.03355)
(-0.068840753 0.0048461142 0.03355)
(-0.068847449 0.0044615322 0.03355)
(-0.068853646 0.0041055613 0.03355)
(-0.068859384 0.0037760271 0.03355)
(-0.068864695 0.0034709271 0.03355)
(-0.068869614 0.0031884157 0.03355)
(-0.068874169 0.0029267917 0.03355)
(-0.068878387 0.002684486 0.03355)
(-0.068882295 0.0024600509 0.03355)
(-0.068885914 0.0022521501 0.03355)
(-0.068889267 0.00205955 0.03355)
(-0.068892374 0.0018811109 0.03355)
(-0.068895252 0.0017157803 0.03355)
(-0.06889792 0.0015625852 0.03355)
(-0.068900391 0.0014206263 0.03355)
(-0.068902681 0.0012890722 0.03355)
(-0.068904804 0.0011671541 0.03355)
(-0.068906771 0.0010541607 0.03355)
(-0.068908594 0.00094943412 0.03355)
(-0.068910284 0.00085236556 0.03355)
(-0.068911851 0.00076239162 0.03355)
(-0.068913303 0.00067899083 0.03355)
(-0.068914649 0.00060168046 0.03355)
(-0.068915897 0.00053001359 0.03355)
(-0.068917053 0.00046357639 0.03355)
(-0.068918126 0.00040198565 0.03355)
(-0.06891912 0.00034488645 0.03355)
(-0.068920041 0.00029195006 0.03355)
(-0.068920896 0.00024287198 0.03355)
(-0.068921688 0.00019737011 0.03355)
(-0.068922422 0.00015518312 0.03355)
(-0.068923103 0.00011606887 0.03355)
(-0.068923735 7.9803001e-05 0.03355)
(-0.06892432 4.6177605e-05 0.03355)
(-0.068924863 1.5000026e-05 0.03355)
(-0.060283418 0.14450475 0.03355)
(-0.060553991 0.13041199 0.03355)
(-0.060792369 0.11799615 0.03355)
(-0.06100341 0.10700415 0.03355)
(-0.061191058 0.097230565 0.03355)
(-0.061358547 0.088506923 0.03355)
(-0.061508557 0.080693718 0.03355)
(-0.061643323 0.073674449 0.03355)
(-0.061764729 0.067351055 0.03355)
(-0.061874371 0.061640409 0.03355)
(-0.06197361 0.056471578 0.03355)
(-0.062063615 0.05178367 0.03355)
(-0.062145396 0.047524124 0.03355)
(-0.062219829 0.043647336 0.03355)
(-0.062287675 0.040113551 0.03355)
(-0.062349605 0.036887962 0.03355)
(-0.062406205 0.033939971 0.03355)
(-0.062457994 0.031242576 0.03355)
(-0.06250543 0.028771868 0.03355)
(-0.062548922 0.026506608 0.03355)
(-0.062588832 0.024427871 0.03355)
(-0.062625487 0.022518746 0.03355)
(-0.062659175 0.020764084 0.03355)
(-0.062690159 0.019150281 0.03355)
(-0.062718674 0.017665091 0.03355)
(-0.062744932 0.016297471 0.03355)
(-0.062769124 0.01503744 0.03355)
(-0.062791424 0.013875962 0.03355)
(-0.062811989 0.012804842 0.03355)
(-0.062830962 0.011816637 0.03355)
(-0.062848473 0.010904576 0.03355)
(-0.06286464 0.010062492 0.03355)
(-0.062879572 0.0092847599 0.03355)
(-0.062893368 0.0085662433 0.03355)
(-0.062906116 0.0079022474 0.03355)
(-0.0629179 0.0072884757 0.03355)
(-0.062928795 0.0067209932 0.03355)
(-0.062938871 0.0061961925 0.03355)
(-0.062948191 0.0057107639 0.03355)
(-0.062956814 0.0052616682 0.03355)
(-0.062964792 0.0048461131 0.03355)
(-0.062972176 0.0044615312 0.03355)
(-0.06297901 0.0041055605 0.03355)
(-0.062985337 0.0037760264 0.03355)
(-0.062991195 0.0034709265 0.03355)
(-0.062996619 0.0031884152 0.03355)
(-0.063001642 0.0029267912 0.03355)
(-0.063006294 0.0026844856 0.03355)
(-0.063010603 0.0024600505 0.03355)
(-0.063014595 0.0022521498 0.03355)
(-0.063018293 0.0020595497 0.03355)
(-0.063021719 0.0018811107 0.03355)
(-0.063024893 0.0017157801 0.03355)
(-0.063027834 0.001562585 0.03355)
(-0.06303056 0.0014206261 0.03355)
(-0.063033086 0.0012890721 0.03355)
(-0.063035426 0.001167154 0.03355)
(-0.063037596 0.0010541606 0.03355)
(-0.063039606 0.00094943405 0.03355)
(-0.06304147 0.0008523655 0.03355)
(-0.063043198 0.00076239157 0.03355)
(-0.063044799 0.00067899078 0.03355)
(-0.063046283 0.00060168042 0.03355)
(-0.063047659 0.00053001356 0.03355)
(-0.063048935 0.00046357637 0.03355)
(-0.063050117 0.00040198563 0.03355)
(-0.063051213 0.00034488643 0.03355)
(-0.06305223 0.00029195004 0.03355)
(-0.063053172 0.00024287196 0.03355)
(-0.063054046 0.0001973701 0.03355)
(-0.063054856 0.00015518311 0.03355)
(-0.063055607 0.00011606886 0.03355)
(-0.063056303 7.9802993e-05 0.03355)
(-0.063056948 4.6177598e-05 0.03355)
(-0.063057547 1.500002e-05 0.03355)
(-0.054655305 0.14450333 0.03355)
(-0.054943095 0.13041089 0.03355)
(-0.055196642 0.11799528 0.03355)
(-0.055421113 0.10700346 0.03355)
(-0.055620702 0.097230018 0.03355)
(-0.055798851 0.088506484 0.03355)
(-0.055958407 0.080693364 0.03355)
(-0.056101751 0.073674161 0.03355)
(-0.056230883 0.06735082 0.03355)
(-0.056347503 0.061640216 0.03355)
(-0.056453058 0.056471419 0.03355)
(-0.056548792 0.051783539 0.03355)
(-0.056635779 0.047524016 0.03355)
(-0.056714949 0.043647246 0.03355)
(-0.056787114 0.040113476 0.03355)
(-0.056852985 0.0368879 0.03355)
(-0.056913188 0.033939918 0.03355)
(-0.056968273 0.031242531 0.03355)
(-0.057018728 0.028771831 0.03355)
(-0.057064989 0.026506577 0.03355)
(-0.05710744 0.024427844 0.03355)
(-0.057146427 0.022518724 0.03355)
(-0.05718226 0.020764065 0.03355)
(-0.057215216 0.019150265 0.03355)
(-0.057245546 0.017665078 0.03355)
(-0.057273475 0.01629746 0.03355)
(-0.057299207 0.015037431 0.03355)
(-0.057322926 0.013875954 0.03355)
(-0.0573448 0.012804835 0.03355)
(-0.057364981 0.011816631 0.03355)
(-0.057383607 0.010904571 0.03355)
(-0.057400803 0.010062488 0.03355)
(-0.057416686 0.0092847561 0.03355)
(-0.057431359 0.0085662401 0.03355)
(-0.057444919 0.0079022446 0.03355)
(-0.057457453 0.0072884734 0.03355)
(-0.057469042 0.0067209912 0.03355)
(-0.057479759 0.0061961908 0.03355)
(-0.057489673 0.0057107624 0.03355)
(-0.057498844 0.0052616669 0.03355)
(-0.05750733 0.004846112 0.03355)
(-0.057515184 0.0044615303 0.03355)
(-0.057522453 0.0041055597 0.03355)
(-0.057529183 0.0037760258 0.03355)
(-0.057535414 0.0034709259 0.03355)
(-0.057541183 0.0031884147 0.03355)
(-0.057546526 0.0029267908 0.03355)
(-0.057551474 0.0026844852 0.03355)
(-0.057556057 0.0024600502 0.03355)
(-0.057560303 0.0022521496 0.03355)
(-0.057564236 0.0020595495 0.03355)
(-0.05756788 0.0018811105 0.03355)
(-0.057571257 0.00171578 0.03355)
(-0.057574385 0.0015625849 0.03355)
(-0.057577284 0.001420626 0.03355)
(-0.057579971 0.001289072 0.03355)
(-0.05758246 0.0011671539 0.03355)
(-0.057584768 0.0010541605 0.03355)
(-0.057586907 0.00094943398 0.03355)
(-0.057588889 0.00085236544 0.03355)
(-0.057590726 0.00076239152 0.03355)
(-0.057592429 0.00067899074 0.03355)
(-0.057594008 0.00060168039 0.03355)
(-0.057595472 0.00053001353 0.03355)
(-0.057596829 0.00046357634 0.03355)
(-0.057598086 0.0004019856 0.03355)
(-0.057599252 0.00034488641 0.03355)
(-0.057600333 0.00029195002 0.03355)
(-0.057601336 0.00024287195 0.03355)
(-0.057602265 0.00019737009 0.03355)
(-0.057603126 0.0001551831 0.03355)
(-0.057603925 0.00011606885 0.03355)
(-0.057604666 7.9802985e-05 0.03355)
(-0.057605353 4.6177591e-05 0.03355)
(-0.057605989 1.5000014e-05 0.03355)
(-0.049478432 0.14450188 0.03355)
(-0.049776472 0.13040976 0.03355)
(-0.050039049 0.1179944 0.03355)
(-0.050271516 0.10700277 0.03355)
(-0.050478216 0.097229464 0.03355)
(-0.050662711 0.088506039 0.03355)
(-0.050827952 0.080693005 0.03355)
(-0.050976403 0.073673871 0.03355)
(-0.051110137 0.067350584 0.03355)
(-0.051230912 0.061640022 0.03355)
(-0.051340228 0.05647126 0.03355)
(-0.051439374 0.051783407 0.03355)
(-0.05152946 0.047523907 0.03355)
(-0.051611451 0.043647155 0.03355)
(-0.051686188 0.040113401 0.03355)
(-0.051754406 0.036887837 0.03355)
(-0.051816754 0.033939866 0.03355)
(-0.051873802 0.031242487 0.03355)
(-0.051926056 0.028771794 0.03355)
(-0.051973965 0.026506545 0.03355)
(-0.052017929 0.024427818 0.03355)
(-0.052058305 0.022518701 0.03355)
(-0.052095415 0.020764046 0.03355)
(-0.052129546 0.019150249 0.03355)
(-0.052160957 0.017665064 0.03355)
(-0.052189881 0.016297449 0.03355)
(-0.05221653 0.015037421 0.03355)
(-0.052241095 0.013875946 0.03355)
(-0.052263748 0.012804828 0.03355)
(-0.052284648 0.011816625 0.03355)
(-0.052303938 0.010904566 0.03355)
(-0.052321747 0.010062483 0.03355)
(-0.052338196 0.0092847524 0.03355)
(-0.052353392 0.0085662369 0.03355)
(-0.052367435 0.0079022419 0.03355)
(-0.052380416 0.007288471 0.03355)
(-0.052392418 0.0067209892 0.03355)
(-0.052403517 0.0061961891 0.03355)
(-0.052413784 0.0057107609 0.03355)
(-0.052423282 0.0052616657 0.03355)
(-0.05243207 0.004846111 0.03355)
(-0.052440204 0.0044615294 0.03355)
(-0.052447733 0.0041055589 0.03355)
(-0.052454702 0.0037760251 0.03355)
(-0.052461155 0.0034709253 0.03355)
(-0.05246713 0.0031884142 0.03355)
(-0.052472663 0.0029267904 0.03355)
(-0.052477787 0.0026844849 0.03355)
(-0.052482534 0.0024600499 0.03355)
(-0.052486931 0.0022521493 0.03355)
(-0.052491005 0.0020595493 0.03355)
(-0.052494778 0.0018811104 0.03355)
(-0.052498275 0.0017157798 0.03355)
(-0.052501515 0.0015625847 0.03355)
(-0.052504517 0.0014206259 0.03355)
(-0.0525073 0.0012890719 0.03355)
(-0.052509878 0.0011671538 0.03355)
(-0.052512268 0.0010541605 0.03355)
(-0.052514483 0.00094943391 0.03355)
(-0.052516536 0.00085236538 0.03355)
(-0.052518439 0.00076239147 0.03355)
(-0.052520203 0.0006789907 0.03355)
(-0.052521838 0.00060168035 0.03355)
(-0.052523353 0.00053001349 0.03355)
(-0.052524758 0.00046357631 0.03355)
(-0.052526061 0.00040198558 0.03355)
(-0.052527269 0.00034488639 0.03355)
(-0.052528388 0.00029195001 0.03355)
(-0.052529426 0.00024287193 0.03355)
(-0.052530389 0.00019737007 0.03355)
(-0.052531281 0.00015518309 0.03355)
(-0.052532108 0.00011606884 0.03355)
(-0.052532875 7.9802976e-05 0.03355)
(-0.052533586 4.6177584e-05 0.03355)
(-0.052534246 1.5000008e-05 0.03355)
(-0.044710022 0.1445004 0.03355)
(-0.045012256 0.13040862 0.03355)
(-0.045278529 0.11799351 0.03355)
(-0.045514268 0.10700206 0.03355)
(-0.045723878 0.097228904 0.03355)
(-0.045910972 0.088505591 0.03355)
(-0.04607854 0.080692644 0.03355)
(-0.046229082 0.073673578 0.03355)
(-0.0463647 0.067350345 0.03355)
(-0.046487176 0.061639827 0.03355)
(-0.046598033 0.056471099 0.03355)
(-0.046698575 0.051783275 0.03355)
(-0.04678993 0.047523797 0.03355)
(-0.046873076 0.043647064 0.03355)
(-0.046948866 0.040113325 0.03355)
(-0.047018047 0.036887774 0.03355)
(-0.047081273 0.033939813 0.03355)
(-0.047139125 0.031242443 0.03355)
(-0.047192115 0.028771756 0.03355)
(-0.047240699 0.026506514 0.03355)
(-0.047285282 0.024427792 0.03355)
(-0.047326228 0.022518679 0.03355)
(-0.047363861 0.020764028 0.03355)
(-0.047398473 0.019150233 0.03355)
(-0.047430326 0.017665051 0.03355)
(-0.047459658 0.016297437 0.03355)
(-0.047486683 0.015037411 0.03355)
(-0.047511594 0.013875937 0.03355)
(-0.047534566 0.012804821 0.03355)
(-0.047555761 0.011816619 0.03355)
(-0.047575322 0.010904561 0.03355)
(-0.047593383 0.010062479 0.03355)
(-0.047610063 0.0092847487 0.03355)
(-0.047625474 0.0085662338 0.03355)
(-0.047639715 0.0079022392 0.03355)
(-0.047652878 0.0072884687 0.03355)
(-0.047665049 0.0067209872 0.03355)
(-0.047676305 0.0061961874 0.03355)
(-0.047686716 0.0057107595 0.03355)
(-0.047696348 0.0052616644 0.03355)
(-0.047705261 0.0048461099 0.03355)
(-0.047713509 0.0044615285 0.03355)
(-0.047721144 0.0041055581 0.03355)
(-0.047728212 0.0037760244 0.03355)
(-0.047734755 0.0034709247 0.03355)
(-0.047740814 0.0031884137 0.03355)
(-0.047746426 0.00292679 0.03355)
(-0.047751622 0.0026844845 0.03355)
(-0.047756436 0.0024600496 0.03355)
(-0.047760895 0.002252149 0.03355)
(-0.047765026 0.0020595491 0.03355)
(-0.047768853 0.0018811102 0.03355)
(-0.047772399 0.0017157796 0.03355)
(-0.047775684 0.0015625846 0.03355)
(-0.047778729 0.0014206258 0.03355)
(-0.047781551 0.0012890718 0.03355)
(-0.047784165 0.0011671537 0.03355)
(-0.047786589 0.0010541604 0.03355)
(-0.047788835 0.00094943385 0.03355)
(-0.047790917 0.00085236532 0.03355)
(-0.047792847 0.00076239142 0.03355)
(-0.047794635 0.00067899066 0.03355)
(-0.047796293 0.00060168031 0.03355)
(-0.047797831 0.00053001346 0.03355)
(-0.047799255 0.00046357628 0.03355)
(-0.047800576 0.00040198556 0.03355)
(-0.047801801 0.00034488637 0.03355)
(-0.047802936 0.00029194999 0.03355)
(-0.047803989 0.00024287192 0.03355)
(-0.047804965 0.00019737006 0.03355)
(-0.04780587 0.00015518308 0.03355)
(-0.047806709 0.00011606884 0.03355)
(-0.047807486 7.9802968e-05 0.03355)
(-0.047808208 4.6177577e-05 0.03355)
(-0.047808876 1.5000002e-05 0.03355)
(-0.040310679 0.1444989 0.03355)
(-0.040611855 0.13040746 0.03355)
(-0.040877197 0.11799261 0.03355)
(-0.041112112 0.10700135 0.03355)
(-0.04132099 0.097228339 0.03355)
(-0.041507431 0.088505139 0.03355)
(-0.041674415 0.08069228 0.03355)
(-0.041824431 0.073673283 0.03355)
(-0.041959576 0.067350106 0.03355)
(-0.042081626 0.061639632 0.03355)
(-0.042192096 0.056470939 0.03355)
(-0.042292288 0.051783143 0.03355)
(-0.042383325 0.047523688 0.03355)
(-0.042466182 0.043646974 0.03355)
(-0.042541708 0.040113249 0.03355)
(-0.042610647 0.036887711 0.03355)
(-0.042673654 0.03393976 0.03355)
(-0.042731304 0.031242399 0.03355)
(-0.04278411 0.028771719 0.03355)
(-0.042832525 0.026506483 0.03355)
(-0.042876953 0.024427765 0.03355)
(-0.042917756 0.022518657 0.03355)
(-0.042955258 0.020764009 0.03355)
(-0.04298975 0.019150217 0.03355)
(-0.043021492 0.017665037 0.03355)
(-0.043050722 0.016297426 0.03355)
(-0.043077653 0.015037401 0.03355)
(-0.043102477 0.013875929 0.03355)
(-0.04312537 0.012804814 0.03355)
(-0.04314649 0.011816613 0.03355)
(-0.043165984 0.010904556 0.03355)
(-0.043183982 0.010062475 0.03355)
(-0.043200604 0.009284745 0.03355)
(-0.043215961 0.0085662306 0.03355)
(-0.043230152 0.0079022365 0.03355)
(-0.04324327 0.0072884664 0.03355)
(-0.043255399 0.0067209853 0.03355)
(-0.043266616 0.0061961857 0.03355)
(-0.043276991 0.005710758 0.03355)
(-0.043286589 0.0052616632 0.03355)
(-0.043295471 0.0048461088 0.03355)
(-0.04330369 0.0044615276 0.03355)
(-0.043311298 0.0041055573 0.03355)
(-0.043318342 0.0037760238 0.03355)
(-0.043324862 0.0034709242 0.03355)
(-0.043330901 0.0031884132 0.03355)
(-0.043336492 0.0029267895 0.03355)
(-0.043341671 0.0026844841 0.03355)
(-0.043346468 0.0024600493 0.03355)
(-0.043350911 0.0022521488 0.03355)
(-0.043355028 0.0020595488 0.03355)
(-0.043358841 0.00188111 0.03355)
(-0.043362375 0.0017157794 0.03355)
(-0.043365649 0.0015625844 0.03355)
(-0.043368683 0.0014206257 0.03355)
(-0.043371495 0.0012890717 0.03355)
(-0.043374101 0.0011671536 0.03355)
(-0.043376516 0.0010541603 0.03355)
(-0.043378754 0.00094943378 0.03355)
(-0.043380829 0.00085236527 0.03355)
(-0.043382752 0.00076239137 0.03355)
(-0.043384534 0.00067899061 0.03355)
(-0.043386187 0.00060168028 0.03355)
(-0.043387718 0.00053001343 0.03355)
(-0.043389138 0.00046357626 0.03355)
(-0.043390455 0.00040198553 0.03355)
(-0.043391675 0.00034488635 0.03355)
(-0.043392806 0.00029194997 0.03355)
(-0.043393855 0.0002428719 0.03355)
(-0.043394828 0.00019737005 0.03355)
(-0.04339573 0.00015518307 0.03355)
(-0.043396566 0.00011606883 0.03355)
(-0.043397341 7.980296e-05 0.03355)
(-0.043398059 4.617757e-05 0.03355)
(-0.043398726 1.4999996e-05 0.03355)
(-0.036244062 0.14449738 0.03355)
(-0.036539636 0.13040629 0.03355)
(-0.036800043 0.11799169 0.03355)
(-0.037030591 0.10700063 0.03355)
(-0.037235586 0.09722777 0.03355)
(-0.037418561 0.088504685 0.03355)
(-0.037582442 0.080691916 0.03355)
(-0.03772967 0.073672989 0.03355)
(-0.037862304 0.067349866 0.03355)
(-0.037982085 0.061639436 0.03355)
(-0.038090503 0.056470778 0.03355)
(-0.038188833 0.051783011 0.03355)
(-0.038278179 0.047523578 0.03355)
(-0.038359496 0.043646883 0.03355)
(-0.038433619 0.040113174 0.03355)
(-0.038501278 0.036887648 0.03355)
(-0.038563113 0.033939708 0.03355)
(-0.038619693 0.031242355 0.03355)
(-0.038671518 0.028771682 0.03355)
(-0.038719033 0.026506452 0.03355)
(-0.038762636 0.024427739 0.03355)
(-0.038802681 0.022518635 0.03355)
(-0.038839486 0.02076399 0.03355)
(-0.038873337 0.019150201 0.03355)
(-0.03890449 0.017665024 0.03355)
(-0.038933177 0.016297414 0.03355)
(-0.038959607 0.015037392 0.03355)
(-0.03898397 0.013875921 0.03355)
(-0.039006438 0.012804807 0.03355)
(-0.039027166 0.011816607 0.03355)
(-0.039046298 0.010904551 0.03355)
(-0.039063961 0.01006247 0.03355)
(-0.039080275 0.0092847413 0.03355)
(-0.039095346 0.0085662275 0.03355)
(-0.039109274 0.0079022338 0.03355)
(-0.039122148 0.0072884641 0.03355)
(-0.039134052 0.0067209833 0.03355)
(-0.03914506 0.0061961841 0.03355)
(-0.039155242 0.0057107566 0.03355)
(-0.039164662 0.005261662 0.03355)
(-0.039173379 0.0048461078 0.03355)
(-0.039181446 0.0044615267 0.03355)
(-0.039188913 0.0041055566 0.03355)
(-0.039195825 0.0037760231 0.03355)
(-0.039202225 0.0034709236 0.03355)
(-0.039208151 0.0031884127 0.03355)
(-0.039213639 0.0029267891 0.03355)
(-0.039218721 0.0026844838 0.03355)
(-0.039223429 0.002460049 0.03355)
(-0.03922779 0.0022521485 0.03355)
(-0.03923183 0.0020595486 0.03355)
(-0.039235573 0.0018811098 0.03355)
(-0.039239041 0.0017157793 0.03355)
(-0.039242254 0.0015625843 0.03355)
(-0.039245232 0.0014206255 0.03355)
(-0.039247991 0.0012890716 0.03355)
(-0.039250549 0.0011671535 0.03355)
(-0.039252919 0.0010541602 0.03355)
(-0.039255116 0.00094943371 0.03355)
(-0.039257152 0.00085236521 0.03355)
(-0.039259039 0.00076239132 0.03355)
(-0.039260788 0.00067899057 0.03355)
(-0.03926241 0.00060168024 0.03355)
(-0.039263913 0.0005300134 0.03355)
(-0.039265307 0.00046357623 0.03355)
(-0.039266599 0.00040198551 0.03355)
(-0.039267796 0.00034488633 0.03355)
(-0.039268907 0.00029194995 0.03355)