/*--------------------------------*- C++ -*----------------------------------*\
| =========                 |                                                 |
| \\      /  F ield         | OpenFOAM: The Open Source CFD Toolbox           |
|  \\    /   O peration     | Version:  2212                                  |
|   \\  /    A nd           | Website:  www.openfoam.com                      |
|    \\/     M anipulation  |                                                 |
\*---------------------------------------------------------------------------*/
FoamFile
{
    version     2.0;
    format      ascii;
    arch        "LSB;label=32;scalar=64";
    class       volScalarField;
    location    "0";
    object      Cx;
}
// * * * * * * * * * * * * * * * * * * * * * * * * * * * * * * * * * * * * * //

dimensions      [0 1 0 0 0 0 0];

internalField   nonuniform List<scalar> 
15300
(
-0.09697366
-0.097012517
-0.097046749
-0.097077055
-0.097104002
-0.097128054
-0.097149595
-0.097168948
-0.097186381
-0.097202126
-0.097216376
-0.097229301
-0.097241044
-0.097251732
-0.097261475
-0.097270368
-0.097278495
-0.097285932
-0.097292743
-0.097298989
-0.09730472
-0.097309983
-0.09731482
-0.09731927
-0.097323364
-0.097327135
-0.097330608
-0.097333811
-0.097336764
-0.097339488
-0.097342002
-0.097344324
-0.097346468
-0.097348449
-0.09735028
-0.097351972
-0.097353536
-0.097354983
-0.097356321
-0.09735756
-0.097358705
-0.097359765
-0.097360747
-0.097361655
-0.097362496
-0.097363275
-0.097363997
-0.097364665
-0.097365283
-0.097365857
-0.097366387
-0.097366879
-0.097367335
-0.097367758
-0.097368149
-0.097368512
-0.097368848
-0.097369159
-0.097369448
-0.097369716
-0.097369964
-0.097370194
-0.097370407
-0.097370604
-0.097370787
-0.097370957
-0.097371115
-0.097371261
-0.097371396
-0.097371521
-0.097371638
-0.097371745
-0.097371845
-0.097371938
-0.097372024
-0.0883028
-0.088412109
-0.08850841
-0.088593666
-0.088669472
-0.088737133
-0.088797733
-0.088852174
-0.088901219
-0.08894551
-0.088985599
-0.089021958
-0.089054995
-0.089085063
-0.08911247
-0.089137487
-0.089160352
-0.089181272
-0.089200434
-0.089218003
-0.089234126
-0.089248932
-0.089262541
-0.089275058
-0.089286576
-0.089297183
-0.089306956
-0.089315964
-0.089324271
-0.089331936
-0.089339009
-0.08934554
-0.089351572
-0.089357145
-0.089362295
-0.089367055
-0.089371456
-0.089375526
-0.089379291
-0.089382774
-0.089385997
-0.08938898
-0.089391741
-0.089394297
-0.089396663
-0.089398854
-0.089400883
-0.089402762
-0.089404503
-0.089406115
-0.089407609
-0.089408993
-0.089410275
-0.089411464
-0.089412565
-0.089413585
-0.08941453
-0.089415407
-0.089416219
-0.089416972
-0.08941767
-0.089418316
-0.089418916
-0.089419472
-0.089419987
-0.089420465
-0.089420908
-0.089421318
-0.089421699
-0.089422052
-0.089422379
-0.089422682
-0.089422964
-0.089423224
-0.089423466
-0.080361306
-0.080527433
-0.080673791
-0.080803363
-0.080918573
-0.081021405
-0.081113505
-0.081196246
-0.081270784
-0.081338098
-0.081399026
-0.081454285
-0.081504495
-0.081550193
-0.081591847
-0.081629869
-0.081664618
-0.081696414
-0.081725537
-0.081752238
-0.081776741
-0.081799245
-0.081819928
-0.081838951
-0.081856457
-0.081872578
-0.08188743
-0.081901121
-0.081913747
-0.081925395
-0.081936146
-0.081946072
-0.081955239
-0.081963709
-0.081971536
-0.08197877
-0.08198546
-0.081991646
-0.081997367
-0.082002661
-0.082007559
-0.082012093
-0.082016289
-0.082020173
-0.082023769
-0.082027099
-0.082030183
-0.082033039
-0.082035685
-0.082038135
-0.082040406
-0.082042509
-0.082044458
-0.082046264
-0.082047937
-0.082049488
-0.082050925
-0.082052257
-0.082053491
-0.082054635
-0.082055696
-0.082056679
-0.08205759
-0.082058435
-0.082059218
-0.082059944
-0.082060617
-0.082061241
-0.082061819
-0.082062356
-0.082062853
-0.082063314
-0.082063742
-0.082064138
-0.082064505
-0.07308352
-0.073294502
-0.073480379
-0.073644938
-0.073791256
-0.073921855
-0.074038824
-0.074143906
-0.074238571
-0.074324063
-0.074401443
-0.074471623
-0.074535391
-0.074593428
-0.074646331
-0.074694619
-0.074738752
-0.074779133
-0.074816121
-0.074850033
-0.074881152
-0.074909732
-0.074936
-0.07496016
-0.074982394
-0.075002867
-0.075021731
-0.075039118
-0.075055153
-0.075069947
-0.075083601
-0.075096207
-0.07510785
-0.075118607
-0.075128547
-0.075137735
-0.075146231
-0.075154087
-0.075161354
-0.075168077
-0.075174298
-0.075180056
-0.075185385
-0.075190318
-0.075194885
-0.075199115
-0.075203031
-0.075206659
-0.075210019
-0.075213131
-0.075216014
-0.075218686
-0.075221161
-0.075223454
-0.075225579
-0.075227549
-0.075229374
-0.075231065
-0.075232633
-0.075234086
-0.075235433
-0.075236682
-0.075237839
-0.075238912
-0.075239907
-0.075240829
-0.075241683
-0.075242476
-0.075243211
-0.075243892
-0.075244523
-0.075245109
-0.075245652
-0.075246155
-0.075246622
-0.06640928
-0.066654639
-0.066870802
-0.067062176
-0.067232336
-0.067384216
-0.067520245
-0.067642451
-0.067752542
-0.067851964
-0.067941954
-0.068023571
-0.06809773
-0.068165225
-0.068226748
-0.068282905
-0.06833423
-0.068381192
-0.068424207
-0.068463645
-0.068499836
-0.068533073
-0.068563622
-0.068591718
-0.068617576
-0.068641386
-0.068663323
-0.068683544
-0.068702192
-0.068719397
-0.068735276
-0.068749937
-0.068763477
-0.068775986
-0.068787546
-0.068798232
-0.068808112
-0.068817249
-0.0688257
-0.068833519
-0.068840753
-0.068847449
-0.068853646
-0.068859384
-0.068864695
-0.068869614
-0.068874169
-0.068878387
-0.068882295
-0.068885914
-0.068889267
-0.068892374
-0.068895252
-0.06889792
-0.068900391
-0.068902681
-0.068904804
-0.068906771
-0.068908594
-0.068910284
-0.068911851
-0.068913303
-0.068914649
-0.068915897
-0.068917053
-0.068918126
-0.06891912
-0.068920041
-0.068920896
-0.068921688
-0.068922422
-0.068923103
-0.068923735
-0.06892432
-0.068924863
-0.060283418
-0.060553991
-0.060792369
-0.06100341
-0.061191058
-0.061358547
-0.061508557
-0.061643323
-0.061764729
-0.061874371
-0.06197361
-0.062063615
-0.062145396
-0.062219829
-0.062287675
-0.062349605
-0.062406205
-0.062457994
-0.06250543
-0.062548922
-0.062588832
-0.062625487
-0.062659175
-0.062690159
-0.062718674
-0.062744932
-0.062769124
-0.062791424
-0.062811989
-0.062830962
-0.062848473
-0.06286464
-0.062879572
-0.062893368
-0.062906116
-0.0629179
-0.062928795
-0.062938871
-0.062948191
-0.062956814
-0.062964792
-0.062972176
-0.06297901
-0.062985337
-0.062991195
-0.062996619
-0.063001642
-0.063006294
-0.063010603
-0.063014595
-0.063018293
-0.063021719
-0.063024893
-0.063027834
-0.06303056
-0.063033086
-0.063035426
-0.063037596
-0.063039606
-0.06304147
-0.063043198
-0.063044799
-0.063046283
-0.063047659
-0.063048935
-0.063050117
-0.063051213
-0.06305223
-0.063053172
-0.063054046
-0.063054856
-0.063055607
-0.063056303
-0.063056948
-0.063057547
-0.054655305
-0.054943095
-0.055196642
-0.055421113
-0.055620702
-0.055798851
-0.055958407
-0.056101751
-0.056230883
-0.056347503
-0.056453058
-0.056548792
-0.056635779
-0.056714949
-0.056787114
-0.056852985
-0.056913188
-0.056968273
-0.057018728
-0.057064989
-0.05710744
-0.057146427
-0.05718226
-0.057215216
-0.057245546
-0.057273475
-0.057299207
-0.057322926
-0.0573448
-0.057364981
-0.057383607
-0.057400803
-0.057416686
-0.057431359
-0.057444919
-0.057457453
-0.057469042
-0.057479759
-0.057489673
-0.057498844
-0.05750733
-0.057515184
-0.057522453
-0.057529183
-0.057535414
-0.057541183
-0.057546526
-0.057551474
-0.057556057
-0.057560303
-0.057564236
-0.05756788
-0.057571257
-0.057574385
-0.057577284
-0.057579971
-0.05758246
-0.057584768
-0.057586907
-0.057588889
-0.057590726
-0.057592429
-0.057594008
-0.057595472
-0.057596829
-0.057598086
-0.057599252
-0.057600333
-0.057601336
-0.057602265
-0.057603126
-0.057603925
-0.057604666
-0.057605353
-0.057605989
-0.049478432
-0.049776472
-0.050039049
-0.050271516
-0.050478216
-0.050662711
-0.050827952
-0.050976403
-0.051110137
-0.051230912
-0.051340228
-0.051439374
-0.05152946
-0.051611451
-0.051686188
-0.051754406
-0.051816754
-0.051873802
-0.051926056
-0.051973965
-0.052017929
-0.052058305
-0.052095415
-0.052129546
-0.052160957
-0.052189881
-0.05221653
-0.052241095
-0.052263748
-0.052284648
-0.052303938
-0.052321747
-0.052338196
-0.052353392
-0.052367435
-0.052380416
-0.052392418
-0.052403517
-0.052413784
-0.052423282
-0.05243207
-0.052440204
-0.052447733
-0.052454702
-0.052461155
-0.05246713
-0.052472663
-0.052477787
-0.052482534
-0.052486931
-0.052491005
-0.052494778
-0.052498275
-0.052501515
-0.052504517
-0.0525073
-0.052509878
-0.052512268
-0.052514483
-0.052516536
-0.052518439
-0.052520203
-0.052521838
-0.052523353
-0.052524758
-0.052526061
-0.052527269
-0.052528388
-0.052529426
-0.052530389
-0.052531281
-0.052532108
-0.052532875
-0.052533586
-0.052534246
-0.044710022
-0.045012256
-0.045278529
-0.045514268
-0.045723878
-0.045910972
-0.04607854
-0.046229082
-0.0463647
-0.046487176
-0.046598033
-0.046698575
-0.04678993
-0.046873076
-0.046948866
-0.047018047
-0.047081273
-0.047139125
-0.047192115
-0.047240699
-0.047285282
-0.047326228
-0.047363861
-0.047398473
-0.047430326
-0.047459658
-0.047486683
-0.047511594
-0.047534566
-0.047555761
-0.047575322
-0.047593383
-0.047610063
-0.047625474
-0.047639715
-0.047652878
-0.047665049
-0.047676305
-0.047686716
-0.047696348
-0.047705261
-0.047713509
-0.047721144
-0.047728212
-0.047734755
-0.047740814
-0.047746426
-0.047751622
-0.047756436
-0.047760895
-0.047765026
-0.047768853
-0.047772399
-0.047775684
-0.047778729
-0.047781551
-0.047784165
-0.047786589
-0.047788835
-0.047790917
-0.047792847
-0.047794635
-0.047796293
-0.047797831
-0.047799255
-0.047800576
-0.047801801
-0.047802936
-0.047803989
-0.047804965
-0.04780587
-0.047806709
-0.047807486
-0.047808208
-0.047808876
-0.040310679
-0.040611855
-0.040877197
-0.041112112
-0.04132099
-0.041507431
-0.041674415
-0.041824431
-0.041959576
-0.042081626
-0.042192096
-0.042292288
-0.042383325
-0.042466182
-0.042541708
-0.042610647
-0.042673654
-0.042731304
-0.04278411
-0.042832525
-0.042876953
-0.042917756
-0.042955258
-0.04298975
-0.043021492
-0.043050722
-0.043077653
-0.043102477
-0.04312537
-0.04314649
-0.043165984
-0.043183982
-0.043200604
-0.043215961
-0.043230152
-0.04324327
-0.043255399
-0.043266616
-0.043276991
-0.043286589
-0.043295471
-0.04330369
-0.043311298
-0.043318342
-0.043324862
-0.043330901
-0.043336492
-0.043341671
-0.043346468
-0.043350911
-0.043355028
-0.043358841
-0.043362375
-0.043365649
-0.043368683
-0.043371495
-0.043374101
-0.043376516
-0.043378754
-0.043380829
-0.043382752
-0.043384534
-0.043386187
-0.043387718
-0.043389138
-0.043390455
-0.043391675
-0.043392806
-0.043393855
-0.043394828
-0.04339573
-0.043396566
-0.043397341
-0.043398059
-0.043398726
-0.036244062
-0.036539636
-0.036800043
-0.037030591
-0.037235586
-0.037418561
-0.037582442
-0.03772967
-0.037862304
-0.037982085
-0.038090503
-0.038188833
-0.038278179
-0.038359496
-0.038433619
-0.038501278
-0.038563113
-0.038619693
-0.038671518
-0.038719033
-0.038762636
-0.038802681
-0.038839486
-0.038873337
-0.03890449
-0.038933177
-0.038959607
-0.03898397
-0.039006438
-0.039027166
-0.039046298
-0.039063961
-0.039080275
-0.039095346
-0.039109274
-0.039122148
-0.039134052
-0.03914506
-0.039155242
-0.039164662
-0.039173379
-0.039181446
-0.039188913
-0.039195825
-0.039202225
-0.039208151
-0.039213639
-0.039218721
-0.039223429
-0.03922779
-0.03923183
-0.039235573
-0.039239041
-0.039242254
-0.039245232
-0.039247991
-0.039250549
-0.039252919
-0.039255116
-0.039257152
-0.039259039
-0.039260788
-0.03926241
-0.039263913
-0.039265307
-0.039266599
-0.039267796
-0.039268907
-0.039269936
-0.039270891
-0.039271776
-0.039272596
-0.039273357
-0.039274062
-0.039274716
-0.032476579
-0.032762632
-0.033014653
-0.033237777
-0.033436171
-0.033613254
-0.033771858
-0.033914346
-0.03404271
-0.034158635
-0.034263562
-0.034358727
-0.034445197
-0.034523896
-0.034595633
-0.034661114
-0.034720959
-0.034775717
-0.034825874
-0.03487186
-0.034914059
-0.034952815
-0.034988436
-0.035021197
-0.035051347
-0.035079111
-0.03510469
-0.035128269
-0.035150014
-0.035170075
-0.03518859
-0.035205685
-0.035221474
-0.03523606
-0.03524954
-0.035262
-0.03527352
-0.035284174
-0.035294028
-0.035303145
-0.035311581
-0.035319389
-0.035326615
-0.035333305
-0.035339499
-0.035345234
-0.035350545
-0.035355464
-0.03536002
-0.035364241
-0.035368151
-0.035371773
-0.03537513
-0.03537824
-0.035381121
-0.035383792
-0.035386267
-0.035388561
-0.035390687
-0.035392658
-0.035394484
-0.035396177
-0.035397747
-0.035399202
-0.03540055
-0.035401801
-0.03540296
-0.035404034
-0.035405031
-0.035405955
-0.035406811
-0.035407605
-0.035408341
-0.035409024
-0.035409657
-0.028977117
-0.02925028
-0.029490945
-0.029704016
-0.029893471
-0.030062577
-0.030214036
-0.030350105
-0.030472686
-0.03058339
-0.030683591
-0.030774469
-0.030857043
-0.030932198
-0.031000704
-0.031063235
-0.031120385
-0.031172677
-0.031220574
-0.031264489
-0.031304788
-0.031341798
-0.031375815
-0.0314071
-0.031435892
-0.031462406
-0.031486833
-0.03150935
-0.031530115
-0.031549273
-0.031566954
-0.031583279
-0.031598356
-0.031612286
-0.031625158
-0.031637057
-0.031648059
-0.031658233
-0.031667643
-0.03167635
-0.031684406
-0.031691862
-0.031698763
-0.031705151
-0.031711066
-0.031716543
-0.031721615
-0.031726312
-0.031730663
-0.031734694
-0.031738427
-0.031741887
-0.031745092
-0.031748062
-0.031750814
-0.031753364
-0.031755728
-0.031757918
-0.031759949
-0.03176183
-0.031763575
-0.031765192
-0.03176669
-0.03176808
-0.031769368
-0.031770562
-0.031771669
-0.031772695
-0.031773646
-0.031774529
-0.031775346
-0.031776105
-0.031776808
-0.03177746
-0.031778064
-0.025716777
-0.025974163
-0.02620093
-0.026401696
-0.026580211
-0.026739552
-0.026882265
-0.027010478
-0.027125981
-0.027230293
-0.027324709
-0.02741034
-0.027488147
-0.027558963
-0.027623513
-0.027682434
-0.027736284
-0.027785557
-0.027830689
-0.027872068
-0.027910041
-0.027944915
-0.027976967
-0.028006446
-0.028033576
-0.028058559
-0.028081576
-0.028102793
-0.028122359
-0.028140411
-0.028157071
-0.028172454
-0.028186661
-0.028199786
-0.028211916
-0.028223127
-0.028233494
-0.02824308
-0.028251948
-0.028260152
-0.028267743
-0.028274768
-0.02828127
-0.02828729
-0.028292863
-0.028298024
-0.028302803
-0.02830723
-0.028311329
-0.028315127
-0.028318645
-0.028321905
-0.028324925
-0.028327724
-0.028330317
-0.02833272
-0.028334947
-0.028337011
-0.028338924
-0.028340697
-0.028342341
-0.028343864
-0.028345277
-0.028346586
-0.028347799
-0.028348925
-0.028349968
-0.028350935
-0.028351831
-0.028352662
-0.028353433
-0.028354147
-0.02835481
-0.028355424
-0.028355994
-0.02266864
-0.022907789
-0.023118488
-0.023305029
-0.023470897
-0.023618949
-0.023751552
-0.023870681
-0.023978002
-0.024074924
-0.024162651
-0.024242216
-0.024314512
-0.024380311
-0.024440289
-0.024495036
-0.024545071
-0.024590854
-0.024632789
-0.024671237
-0.024706519
-0.024738923
-0.024768705
-0.024796096
-0.024821304
-0.024844517
-0.024865904
-0.024885618
-0.024903798
-0.024920571
-0.024936051
-0.024950344
-0.024963545
-0.02497574
-0.024987011
-0.024997428
-0.02500706
-0.025015968
-0.025024207
-0.02503183
-0.025038883
-0.025045411
-0.025051453
-0.025057046
-0.025062225
-0.02506702
-0.02507146
-0.025075573
-0.025079382
-0.025082911
-0.02508618
-0.025089209
-0.025092015
-0.025094615
-0.025097025
-0.025099258
-0.025101327
-0.025103245
-0.025105023
-0.02510667
-0.025108197
-0.025109613
-0.025110925
-0.025112142
-0.025113269
-0.025114315
-0.025115284
-0.025116182
-0.025117015
-0.025117788
-0.025118504
-0.025119168
-0.025119783
-0.025120354
-0.025120883
-0.019807542
-0.020026365
-0.020219157
-0.020389846
-0.020541618
-0.020677089
-0.020798424
-0.02090743
-0.021005632
-0.021094318
-0.02117459
-0.021247395
-0.021313547
-0.021373755
-0.021428636
-0.021478732
-0.021524516
-0.021566408
-0.02160478
-0.021639961
-0.021672246
-0.021701896
-0.021729147
-0.021754211
-0.021777278
-0.021798518
-0.021818087
-0.021836126
-0.021852762
-0.02186811
-0.021882275
-0.021895353
-0.021907432
-0.021918592
-0.021928904
-0.021938437
-0.02194725
-0.021955401
-0.02196294
-0.021969915
-0.021976369
-0.021982342
-0.021987871
-0.021992989
-0.021997727
-0.022002115
-0.022006178
-0.022009942
-0.022013427
-0.022016656
-0.022019648
-0.022022419
-0.022024987
-0.022027366
-0.022029571
-0.022031614
-0.022033508
-0.022035263
-0.022036889
-0.022038397
-0.022039794
-0.022041089
-0.02204229
-0.022043403
-0.022044435
-0.022045392
-0.022046278
-0.022047101
-0.022047863
-0.022048569
-0.022049225
-0.022049832
-0.022050395
-0.022050918
-0.022051402
-0.017109864
-0.017306605
-0.017479942
-0.017633407
-0.017769864
-0.017891665
-0.018000757
-0.018098765
-0.018187057
-0.018266795
-0.018338968
-0.018404426
-0.018463904
-0.018518037
-0.018567381
-0.018612422
-0.018653587
-0.018691252
-0.018725753
-0.018757384
-0.018786411
-0.01881307
-0.018837572
-0.018860107
-0.018880846
-0.018899943
-0.018917538
-0.018933757
-0.018948714
-0.018962513
-0.018975249
-0.018987008
-0.018997868
-0.019007902
-0.019017174
-0.019025745
-0.019033669
-0.019040997
-0.019047776
-0.019054047
-0.01905985
-0.01906522
-0.019070191
-0.019074793
-0.019079053
-0.019082998
-0.019086652
-0.019090035
-0.019093169
-0.019096072
-0.019098762
-0.019101254
-0.019103562
-0.019105702
-0.019107684
-0.019109521
-0.019111223
-0.019112801
-0.019114264
-0.019115619
-0.019116876
-0.01911804
-0.01911912
-0.019120121
-0.019121048
-0.019121908
-0.019122706
-0.019123445
-0.01912413
-0.019124766
-0.019125355
-0.019125901
-0.019126407
-0.019126877
-0.019127312
-0.014553343
-0.014726535
-0.014879125
-0.015014221
-0.015134347
-0.01524157
-0.015337605
-0.015423882
-0.015501608
-0.015571803
-0.015635338
-0.015692962
-0.015745322
-0.015792976
-0.015836415
-0.015876065
-0.015912303
-0.015945461
-0.015975832
-0.016003678
-0.016029232
-0.0160527
-0.016074269
-0.016094107
-0.016112364
-0.016129176
-0.016144666
-0.016158943
-0.01617211
-0.016184258
-0.01619547
-0.016205822
-0.016215382
-0.016224215
-0.016232377
-0.016239922
-0.016246898
-0.01625335
-0.016259317
-0.016264838
-0.016269946
-0.016274674
-0.01627905
-0.016283101
-0.016286851
-0.016290324
-0.01629354
-0.016296519
-0.016299278
-0.016301833
-0.016304201
-0.016306395
-0.016308427
-0.01631031
-0.016312055
-0.016313673
-0.016315171
-0.01631656
-0.016317848
-0.016319041
-0.016320147
-0.016321172
-0.016322123
-0.016323004
-0.01632382
-0.016324577
-0.016325279
-0.01632593
-0.016326533
-0.016327093
-0.016327611
-0.016328092
-0.016328538
-0.016328951
-0.016329335
-0.012116881
-0.012265315
-0.012396094
-0.01251188
-0.012614834
-0.012706731
-0.01278904
-0.012862985
-0.012929601
-0.012989763
-0.013044217
-0.013093605
-0.013138481
-0.013179324
-0.013216554
-0.013250537
-0.013281596
-0.013310014
-0.013336045
-0.01335991
-0.013381811
-0.013401925
-0.013420412
-0.013437415
-0.013453062
-0.013467471
-0.013480747
-0.013492984
-0.013504269
-0.01351468
-0.01352429
-0.013533162
-0.013541356
-0.013548926
-0.013555922
-0.013562388
-0.013568367
-0.013573897
-0.013579011
-0.013583743
-0.013588121
-0.013592173
-0.013595923
-0.013599395
-0.01360261
-0.013605586
-0.013608343
-0.013610896
-0.01361326
-0.013615451
-0.01361748
-0.01361936
-0.013621102
-0.013622716
-0.013624212
-0.013625598
-0.013626882
-0.013628073
-0.013629176
-0.013630199
-0.013631147
-0.013632026
-0.01363284
-0.013633595
-0.013634295
-0.013634944
-0.013635546
-0.013636103
-0.01363662
-0.0136371
-0.013637544
-0.013637956
-0.013638339
-0.013638693
-0.013639021
-0.0097803718
-0.0099030724
-0.010011178
-0.010106891
-0.010191997
-0.010267963
-0.010336002
-0.010397129
-0.010452196
-0.010501928
-0.010546942
-0.010587769
-0.010624865
-0.010658628
-0.010689403
-0.010717495
-0.01074317
-0.010766662
-0.01078818
-0.010807908
-0.010826013
-0.01084264
-0.010857922
-0.010871977
-0.010884912
-0.010896823
-0.010907797
-0.010917913
-0.010927242
-0.010935848
-0.010943792
-0.010951126
-0.010957899
-0.010964157
-0.01096994
-0.010975286
-0.010980228
-0.010984799
-0.010989027
-0.010992938
-0.010996558
-0.010999907
-0.011003007
-0.011005877
-0.011008535
-0.011010995
-0.011013274
-0.011015384
-0.011017339
-0.01101915
-0.011020827
-0.011022381
-0.011023821
-0.011025155
-0.011026392
-0.011027538
-0.011028599
-0.011029584
-0.011030496
-0.011031341
-0.011032125
-0.011032851
-0.011033524
-0.011034149
-0.011034727
-0.011035264
-0.011035761
-0.011036222
-0.011036649
-0.011037046
-0.011037413
-0.011037754
-0.01103807
-0.011038363
-0.011038634
-0.0075245395
-0.0076207369
-0.0077054924
-0.0077805316
-0.0078472554
-0.0079068131
-0.0079601564
-0.0080080801
-0.0080512536
-0.008090244
-0.0081255355
-0.0081575438
-0.0081866275
-0.008213098
-0.0082372266
-0.008259251
-0.0082793801
-0.0082977981
-0.0083146684
-0.008330136
-0.0083443299
-0.0083573658
-0.008369347
-0.0083803664
-0.0083905076
-0.008399846
-0.0084084499
-0.0084163807
-0.0084236946
-0.0084304424
-0.0084366702
-0.0084424202
-0.0084477308
-0.0084526371
-0.008457171
-0.0084613621
-0.008465237
-0.0084688205
-0.0084721352
-0.0084752018
-0.0084780393
-0.0084806654
-0.0084830961
-0.0084853463
-0.0084874296
-0.0084893587
-0.0084911451
-0.0084927997
-0.0084943322
-0.0084957518
-0.008497067
-0.0084982854
-0.0084994144
-0.0085004604
-0.0085014298
-0.0085023281
-0.0085031606
-0.0085039321
-0.0085046472
-0.0085053101
-0.0085059244
-0.0085064939
-0.0085070218
-0.0085075112
-0.0085079649
-0.0085083854
-0.0085087753
-0.0085091368
-0.0085094719
-0.0085097826
-0.0085100707
-0.0085103378
-0.0085105854
-0.008510815
-0.0085110279
-0.0053307735
-0.0053998881
-0.0054607822
-0.0055146956
-0.0055626346
-0.0056054251
-0.0056437507
-0.0056781826
-0.0057092015
-0.0057372151
-0.0057625711
-0.0057855682
-0.005806464
-0.0058254824
-0.0058428182
-0.0058586421
-0.0058731044
-0.0058863373
-0.0058984581
-0.0059095712
-0.0059197692
-0.0059291351
-0.0059377433
-0.0059456604
-0.0059529466
-0.0059596561
-0.0059658377
-0.0059715358
-0.0059767907
-0.0059816388
-0.0059861133
-0.0059902445
-0.0059940601
-0.0059975851
-0.0060008426
-0.0060038538
-0.0060066378
-0.0060092125
-0.006011594
-0.0060137973
-0.006015836
-0.0060177227
-0.0060194691
-0.0060210858
-0.0060225826
-0.0060239686
-0.0060252522
-0.0060264409
-0.006027542
-0.006028562
-0.0060295069
-0.0060303823
-0.0060311934
-0.006031945
-0.0060326414
-0.0060332868
-0.006033885
-0.0060344393
-0.0060349531
-0.0060354293
-0.0060358707
-0.0060362799
-0.0060366592
-0.0060370108
-0.0060373367
-0.0060376389
-0.006037919
-0.0060381787
-0.0060384195
-0.0060386427
-0.0060388497
-0.0060390416
-0.0060392195
-0.0060393845
-0.0060395374
-0.0031809774
-0.0032226051
-0.0032592816
-0.0032917537
-0.0033206274
-0.0033464002
-0.0033694838
-0.0033902222
-0.003408905
-0.0034257776
-0.0034410496
-0.0034549008
-0.0034674865
-0.0034789413
-0.0034893827
-0.0034989135
-0.0035076242
-0.0035155944
-0.0035228948
-0.0035295882
-0.0035357305
-0.0035413717
-0.0035465564
-0.0035513249
-0.0035557135
-0.0035597546
-0.0035634778
-0.0035669098
-0.0035700748
-0.0035729948
-0.0035756899
-0.0035781781
-0.0035804762
-0.0035825994
-0.0035845614
-0.003586375
-0.0035880519
-0.0035896026
-0.003591037
-0.003592364
-0.003593592
-0.0035947284
-0.0035957802
-0.003596754
-0.0035976555
-0.0035984903
-0.0035992634
-0.0035999794
-0.0036006425
-0.0036012569
-0.003601826
-0.0036023533
-0.0036028418
-0.0036032945
-0.0036037139
-0.0036041027
-0.0036044629
-0.0036047968
-0.0036051063
-0.0036053931
-0.003605659
-0.0036059054
-0.0036061339
-0.0036063456
-0.0036065419
-0.0036067239
-0.0036068927
-0.0036070491
-0.0036071941
-0.0036073286
-0.0036074532
-0.0036075688
-0.003607676
-0.0036077753
-0.0036078675
-0.0010574186
-0.0010713208
-0.0010835694
-0.001094414
-0.0011040568
-0.001112664
-0.0011203732
-0.0011272991
-0.0011335385
-0.0011391734
-0.0011442737
-0.0011488995
-0.0011531027
-0.0011569282
-0.0011604153
-0.0011635983
-0.0011665073
-0.0011691691
-0.0011716072
-0.0011738426
-0.0011758939
-0.0011777779
-0.0011795094
-0.0011811019
-0.0011825675
-0.0011839171
-0.0011851606
-0.0011863067
-0.0011873637
-0.0011883389
-0.001189239
-0.00119007
-0.0011908375
-0.0011915465
-0.0011922018
-0.0011928075
-0.0011933675
-0.0011938854
-0.0011943644
-0.0011948076
-0.0011952177
-0.0011955972
-0.0011959485
-0.0011962737
-0.0011965748
-0.0011968535
-0.0011971117
-0.0011973508
-0.0011975723
-0.0011977775
-0.0011979676
-0.0011981436
-0.0011983068
-0.001198458
-0.0011985981
-0.0011987279
-0.0011988482
-0.0011989597
-0.0011990631
-0.0011991589
-0.0011992476
-0.0011993299
-0.0011994062
-0.001199477
-0.0011995425
-0.0011996033
-0.0011996597
-0.0011997119
-0.0011997603
-0.0011998052
-0.0011998469
-0.0011998855
-0.0011999212
-0.0011999544
-0.0011999852
0.0010644019
0.0010745404
0.0010834729
0.0010913814
0.0010984134
0.0011046902
0.001110312
0.0011153626
0.0011199126
0.0011240217
0.001127741
0.0011311143
0.0011341794
0.001136969
0.0011395119
0.001141833
0.0011439543
0.0011458954
0.0011476733
0.0011493034
0.0011507992
0.001152173
0.0011534357
0.001154597
0.0011556657
0.0011566499
0.0011575566
0.0011583924
0.0011591632
0.0011598743
0.0011605307
0.0011611367
0.0011616963
0.0011622134
0.0011626912
0.0011631329
0.0011635412
0.0011639189
0.0011642682
0.0011645914
0.0011648904
0.0011651672
0.0011654233
0.0011656605
0.00116588
0.0011660833
0.0011662716
0.001166446
0.0011666075
0.0011667571
0.0011668957
0.0011670241
0.0011671431
0.0011672533
0.0011673555
0.0011674501
0.0011675379
0.0011676192
0.0011676946
0.0011677644
0.0011678292
0.0011678892
0.0011679448
0.0011679964
0.0011680442
0.0011680885
0.0011681296
0.0011681677
0.001168203
0.0011682358
0.0011682661
0.0011682943
0.0011683204
0.0011683446
0.001168367
0.003193173
0.0032235276
0.0032502715
0.0032739493
0.0032950032
0.0033137958
0.0033306274
0.0033457489
0.0033593716
0.0033716743
0.0033828098
0.0033929094
0.0034020862
0.0034104384
0.0034180517
0.003425001
0.0034313523
0.0034371637
0.0034424868
0.0034473672
0.0034518458
0.003455959
0.0034597394
0.0034632163
0.0034664161
0.0034693627
0.0034720774
0.0034745798
0.0034768875
0.0034790166
0.0034809817
0.003482796
0.0034844716
0.0034860197
0.0034874502
0.0034887726
0.0034899953
0.003491126
0.0034921718
0.0034931394
0.0034940348
0.0034948633
0.0034956303
0.0034963403
0.0034969976
0.0034976063
0.00349817
0.003498692
0.0034991756
0.0034996235
0.0035000385
0.0035004229
0.0035007791
0.0035011092
0.0035014151
0.0035016985
0.0035019612
0.0035022046
0.0035024303
0.0035026394
0.0035028332
0.0035030129
0.0035031795
0.0035033339
0.003503477
0.0035036097
0.0035037328
0.0035038468
0.0035039526
0.0035040506
0.0035041415
0.0035042258
0.0035043039
0.0035043763
0.0035044435
0.0053218461
0.0053722342
0.0054166285
0.0054559332
0.0054908821
0.0055220773
0.0055500174
0.0055751189
0.0055977321
0.0056181543
0.0056366391
0.0056534041
0.0056686373
0.0056825018
0.0056951397
0.0057066754
0.0057172184
0.0057268652
0.0057357014
0.0057438028
0.0057512371
0.0057580649
0.0057643403
0.0057701119
0.0057754235
0.0057803147
0.0057848211
0.005788975
0.0057928058
0.0057963401
0.005799602
0.0058026137
0.0058053952
0.0058079649
0.0058103396
0.0058125348
0.0058145643
0.0058164413
0.0058181774
0.0058197835
0.0058212698
0.0058226452
0.0058239183
0.0058250969
0.0058261881
0.0058271985
0.0058281341
0.0058290007
0.0058298034
0.005830547
0.0058312358
0.005831874
0.0058324653
0.0058330132
0.0058335209
0.0058339914
0.0058344274
0.0058348315
0.0058352061
0.0058355533
0.005835875
0.0058361733
0.0058364498
0.0058367061
0.0058369437
0.005837164
0.0058373682
0.0058375576
0.0058377331
0.0058378958
0.0058380467
0.0058381866
0.0058383163
0.0058384366
0.0058385481
0.007450356
0.0075204732
0.0075822497
0.0076369438
0.0076855766
0.007728986
0.0077678658
0.0078027954
0.0078342626
0.0078626809
0.0078884032
0.0079117324
0.00793293
0.0079522229
0.007969809
0.0079858614
0.0080005324
0.0080139563
0.0080262522
0.0080375256
0.0080478708
0.0080573719
0.0080661043
0.0080741357
0.008081527
0.0080883333
0.0080946041
0.0081003845
0.0081057151
0.0081106332
0.0081151723
0.0081193631
0.0081232337
0.0081268096
0.0081301141
0.0081331687
0.0081359929
0.0081386048
0.0081410206
0.0081432557
0.0081453238
0.0081472378
0.0081490093
0.0081506494
0.0081521678
0.0081535738
0.0081548758
0.0081560817
0.0081571987
0.0081582334
0.0081591919
0.0081600799
0.0081609028
0.0081616652
0.0081623717
0.0081630264
0.0081636332
0.0081641955
0.0081647167
0.0081651998
0.0081656476
0.0081660626
0.0081664474
0.0081668041
0.0081671347
0.0081674412
0.0081677254
0.0081679889
0.0081682331
0.0081684596
0.0081686695
0.0081688642
0.0081690447
0.008169212
0.0081693672
0.0095786377
0.009668058
0.0097468415
0.0098165926
0.0098786139
0.0099339738
0.009983557
0.010028103
0.010068232
0.010104474
0.010137278
0.010167029
0.010194062
0.010218667
0.010241094
0.010261566
0.010280275
0.010297395
0.010313076
0.010327453
0.010340646
0.010352762
0.010363899
0.010374141
0.010383567
0.010392247
0.010400244
0.010407616
0.010414414
0.010420686
0.010426475
0.010431819
0.010436756
0.010441316
0.01044553
0.010449426
0.010453027
0.010456358
0.010459439
0.010462289
0.010464927
0.010467368
0.010469627
0.010471719
0.010473655
0.010475448
0.010477109
0.010478646
0.010480071
0.01048139
0.010482613
0.010483745
0.010484795
0.010485767
0.010486668
0.010487503
0.010488277
0.010488994
0.010489659
0.010490275
0.010490846
0.010491375
0.010491866
0.010492321
0.010492742
0.010493133
0.010493496
0.010493832
0.010494143
0.010494432
0.0104947
0.010494948
0.010495178
0.010495391
0.010495589
0.011706626
0.011814802
0.011910111
0.011994492
0.012069522
0.012136494
0.012196477
0.012250366
0.012298913
0.012342756
0.01238244
0.012418432
0.012451135
0.0124809
0.012508031
0.012532797
0.012555431
0.012576141
0.012595111
0.012612503
0.012628463
0.012643121
0.012656594
0.012668984
0.012680388
0.012690888
0.012700563
0.01270948
0.012717704
0.012725292
0.012732295
0.01273876
0.012744732
0.012750248
0.012755347
0.012760059
0.012764416
0.012768446
0.012772173
0.012775621
0.012778812
0.012781765
0.012784498
0.012787028
0.012789371
0.01279154
0.012793548
0.012795409
0.012797132
0.012798728
0.012800207
0.012801577
0.012802847
0.012804023
0.012805113
0.012806123
0.012807059
0.012807927
0.012808731
0.012809476
0.012810167
0.012810807
0.012811401
0.012811951
0.012812461
0.012812934
0.012813373
0.012813779
0.012814156