/*--------------------------------*- C++ -*----------------------------------*\
| =========                 |                                                 |
| \\      /  F ield         | OpenFOAM: The Open Source CFD Toolbox           |
|  \\    /   O peration     | Version:  2212                                  |
|   \\  /    A nd           | Website:  www.openfoam.com                      |
|    \\/     M anipulation  |                                                 |
\*---------------------------------------------------------------------------*/
FoamFile
{
    version     2.0;
    format      ascii;
    arch        "LSB;label=32;scalar=64";
    class       volScalarField;
    location    "0";
    object      Cy;
}
// * * * * * * * * * * * * * * * * * * * * * * * * * * * * * * * * * * * * * //

dimensions      [0 1 0 0 0 0 0];

internalField   nonuniform List<scalar> 
15300
(
0.14451142
0.13041721
0.11800027
0.10700742
0.097233185
0.088509034
0.08069543
0.073675843
0.067352196
0.061641347
0.056472351
0.05178431
0.047524656
0.043647779
0.040113921
0.036888272
0.03394023
0.031242793
0.028772051
0.026506763
0.024428001
0.022518856
0.020764178
0.01915036
0.017665159
0.016297529
0.015037489
0.013876004
0.012804878
0.011816667
0.010904602
0.010062514
0.0092847785
0.0085662593
0.007902261
0.0072884873
0.0067210032
0.0061962011
0.0057107712
0.0052616744
0.0048461185
0.0044615358
0.0041055644
0.0037760298
0.0034709294
0.0031884177
0.0029267934
0.0026844874
0.0024600521
0.0022521512
0.0020595509
0.0018811117
0.001715781
0.0015625857
0.0014206268
0.0012890726
0.0011671545
0.001054161
0.00094943439
0.00085236579
0.00076239182
0.000678991
0.00060168061
0.00053001372
0.0004635765
0.00040198575
0.00034488653
0.00029195013
0.00024287204
0.00019737016
0.00015518317
0.00011606891
7.9803034e-05
4.6177633e-05
1.500005e-05
0.14451014
0.1304162
0.11799947
0.10700679
0.097232676
0.088508623
0.080695095
0.07367557
0.067351973
0.061641163
0.056472199
0.051784184
0.047524551
0.043647691
0.040113848
0.03688821
0.033940179
0.03124275
0.028772015
0.026506732
0.024427975
0.022518834
0.020764159
0.019150344
0.017665145
0.016297517
0.015037479
0.013875995
0.01280487
0.011816661
0.010904597
0.01006251
0.0092847748
0.0085662561
0.0079022583
0.007288485
0.0067210012
0.0061961994
0.0057107697
0.0052616732
0.0048461174
0.0044615349
0.0041055636
0.0037760291
0.0034709288
0.0031884172
0.0029267929
0.0026844871
0.0024600518
0.0022521509
0.0020595507
0.0018811115
0.0017157808
0.0015625856
0.0014206267
0.0012890725
0.0011671544
0.0010541609
0.00094943432
0.00085236573
0.00076239177
0.00067899096
0.00060168057
0.00053001369
0.00046357648
0.00040198572
0.00034488651
0.00029195011
0.00024287202
0.00019737015
0.00015518316
0.0001160689
7.9803026e-05
4.6177626e-05
1.5000044e-05
0.14450884
0.13041518
0.11799866
0.10700614
0.09723216
0.088508206
0.080694757
0.073675295
0.067351747
0.061640977
0.056472046
0.051784057
0.047524445
0.043647603
0.040113774
0.036888149
0.033940127
0.031242707
0.028771978
0.026506701
0.024427949
0.022518812
0.02076414
0.019150329
0.017665132
0.016297506
0.01503747
0.013875987
0.012804863
0.011816655
0.010904592
0.010062505
0.0092847711
0.0085662529
0.0079022555
0.0072884827
0.0067209992
0.0061961977
0.0057107682
0.0052616719
0.0048461163
0.004461534
0.0041055628
0.0037760285
0.0034709282
0.0031884167
0.0029267925
0.0026844867
0.0024600515
0.0022521507
0.0020595504
0.0018811113
0.0017157806
0.0015625855
0.0014206265
0.0012890724
0.0011671543
0.0010541609
0.00094943425
0.00085236567
0.00076239172
0.00067899092
0.00060168054
0.00053001365
0.00046357645
0.0004019857
0.00034488649
0.00029195009
0.00024287201
0.00019737014
0.00015518315
0.00011606889
7.9803017e-05
4.6177619e-05
1.5000038e-05
0.14450751
0.13041414
0.11799784
0.10700549
0.097231636
0.088507784
0.080694415
0.073675016
0.067351519
0.061640789
0.056471891
0.051783929
0.047524339
0.043647515
0.0401137
0.036888087
0.033940075
0.031242663
0.028771942
0.02650667
0.024427923
0.02251879
0.020764122
0.019150313
0.017665118
0.016297494
0.01503746
0.013875979
0.012804856
0.011816649
0.010904587
0.010062501
0.0092847674
0.0085662497
0.0079022528
0.0072884803
0.0067209972
0.006196196
0.0057107668
0.0052616707
0.0048461153
0.0044615331
0.0041055621
0.0037760278
0.0034709276
0.0031884162
0.0029267921
0.0026844863
0.0024600512
0.0022521504
0.0020595502
0.0018811111
0.0017157805
0.0015625853
0.0014206264
0.0012890723
0.0011671542
0.0010541608
0.00094943419
0.00085236562
0.00076239167
0.00067899087
0.0006016805
0.00053001362
0.00046357642
0.00040198567
0.00034488647
0.00029195008
0.00024287199
0.00019737012
0.00015518313
0.00011606888
7.9803009e-05
4.6177612e-05
1.5000032e-05
0.14450614
0.13041307
0.117997
0.10700482
0.097231104
0.088507356
0.080694069
0.073674734
0.067351288
0.0616406
0.056471735
0.0517838
0.047524232
0.043647426
0.040113626
0.036888025
0.033940023
0.03124262
0.028771905
0.026506639
0.024427897
0.022518768
0.020764103
0.019150297
0.017665105
0.016297483
0.01503745
0.013875971
0.012804849
0.011816643
0.010904581
0.010062497
0.0092847636
0.0085662465
0.0079022501
0.007288478
0.0067209952
0.0061961942
0.0057107653
0.0052616694
0.0048461142
0.0044615322
0.0041055613
0.0037760271
0.0034709271
0.0031884157
0.0029267917
0.002684486
0.0024600509
0.0022521501
0.00205955
0.0018811109
0.0017157803
0.0015625852
0.0014206263
0.0012890722
0.0011671541
0.0010541607
0.00094943412
0.00085236556
0.00076239162
0.00067899083
0.00060168046
0.00053001359
0.00046357639
0.00040198565
0.00034488645
0.00029195006
0.00024287198
0.00019737011
0.00015518312
0.00011606887
7.9803001e-05
4.6177605e-05
1.5000026e-05
0.14450475
0.13041199
0.11799615
0.10700415
0.097230565
0.088506923
0.080693718
0.073674449
0.067351055
0.061640409
0.056471578
0.05178367
0.047524124
0.043647336
0.040113551
0.036887962
0.033939971
0.031242576
0.028771868
0.026506608
0.024427871
0.022518746
0.020764084
0.019150281
0.017665091
0.016297471
0.01503744
0.013875962
0.012804842
0.011816637
0.010904576
0.010062492
0.0092847599
0.0085662433
0.0079022474
0.0072884757
0.0067209932
0.0061961925
0.0057107639
0.0052616682
0.0048461131
0.0044615312
0.0041055605
0.0037760264
0.0034709265
0.0031884152
0.0029267912
0.0026844856
0.0024600505
0.0022521498
0.0020595497
0.0018811107
0.0017157801
0.001562585
0.0014206261
0.0012890721
0.001167154
0.0010541606
0.00094943405
0.0008523655
0.00076239157
0.00067899078
0.00060168042
0.00053001356
0.00046357637
0.00040198563
0.00034488643
0.00029195004
0.00024287196
0.0001973701
0.00015518311
0.00011606886
7.9802993e-05
4.6177598e-05
1.500002e-05
0.14450333
0.13041089
0.11799528
0.10700346
0.097230018
0.088506484
0.080693364
0.073674161
0.06735082
0.061640216
0.056471419
0.051783539
0.047524016
0.043647246
0.040113476
0.0368879
0.033939918
0.031242531
0.028771831
0.026506577
0.024427844
0.022518724
0.020764065
0.019150265
0.017665078
0.01629746
0.015037431
0.013875954
0.012804835
0.011816631
0.010904571
0.010062488
0.0092847561
0.0085662401
0.0079022446
0.0072884734
0.0067209912
0.0061961908
0.0057107624
0.0052616669
0.004846112
0.0044615303
0.0041055597
0.0037760258
0.0034709259
0.0031884147
0.0029267908
0.0026844852
0.0024600502
0.0022521496
0.0020595495
0.0018811105
0.00171578
0.0015625849
0.001420626
0.001289072
0.0011671539
0.0010541605
0.00094943398
0.00085236544
0.00076239152
0.00067899074
0.00060168039
0.00053001353
0.00046357634
0.0004019856
0.00034488641
0.00029195002
0.00024287195
0.00019737009
0.0001551831
0.00011606885
7.9802985e-05
4.6177591e-05
1.5000014e-05
0.14450188
0.13040976
0.1179944
0.10700277
0.097229464
0.088506039
0.080693005
0.073673871
0.067350584
0.061640022
0.05647126
0.051783407
0.047523907
0.043647155
0.040113401
0.036887837
0.033939866
0.031242487
0.028771794
0.026506545
0.024427818
0.022518701
0.020764046
0.019150249
0.017665064
0.016297449
0.015037421
0.013875946
0.012804828
0.011816625
0.010904566
0.010062483
0.0092847524
0.0085662369
0.0079022419
0.007288471
0.0067209892
0.0061961891
0.0057107609
0.0052616657
0.004846111
0.0044615294
0.0041055589
0.0037760251
0.0034709253
0.0031884142
0.0029267904
0.0026844849
0.0024600499
0.0022521493
0.0020595493
0.0018811104
0.0017157798
0.0015625847
0.0014206259
0.0012890719
0.0011671538
0.0010541605
0.00094943391
0.00085236538
0.00076239147
0.0006789907
0.00060168035
0.00053001349
0.00046357631
0.00040198558
0.00034488639
0.00029195001
0.00024287193
0.00019737007
0.00015518309
0.00011606884
7.9802976e-05
4.6177584e-05
1.5000008e-05
0.1445004
0.13040862
0.11799351
0.10700206
0.097228904
0.088505591
0.080692644
0.073673578
0.067350345
0.061639827
0.056471099
0.051783275
0.047523797
0.043647064
0.040113325
0.036887774
0.033939813
0.031242443
0.028771756
0.026506514
0.024427792
0.022518679
0.020764028
0.019150233
0.017665051
0.016297437
0.015037411
0.013875937
0.012804821
0.011816619
0.010904561
0.010062479
0.0092847487
0.0085662338
0.0079022392
0.0072884687
0.0067209872
0.0061961874
0.0057107595
0.0052616644
0.0048461099
0.0044615285
0.0041055581
0.0037760244
0.0034709247
0.0031884137
0.00292679
0.0026844845
0.0024600496
0.002252149
0.0020595491
0.0018811102
0.0017157796
0.0015625846
0.0014206258
0.0012890718
0.0011671537
0.0010541604
0.00094943385
0.00085236532
0.00076239142
0.00067899066
0.00060168031
0.00053001346
0.00046357628
0.00040198556
0.00034488637
0.00029194999
0.00024287192
0.00019737006
0.00015518308
0.00011606884
7.9802968e-05
4.6177577e-05
1.5000002e-05
0.1444989
0.13040746
0.11799261
0.10700135
0.097228339
0.088505139
0.08069228
0.073673283
0.067350106
0.061639632
0.056470939
0.051783143
0.047523688
0.043646974
0.040113249
0.036887711
0.03393976
0.031242399
0.028771719
0.026506483
0.024427765
0.022518657
0.020764009
0.019150217
0.017665037
0.016297426
0.015037401
0.013875929
0.012804814
0.011816613
0.010904556
0.010062475
0.009284745
0.0085662306
0.0079022365
0.0072884664
0.0067209853
0.0061961857
0.005710758
0.0052616632
0.0048461088
0.0044615276
0.0041055573
0.0037760238
0.0034709242
0.0031884132
0.0029267895
0.0026844841
0.0024600493
0.0022521488
0.0020595488
0.00188111
0.0017157794
0.0015625844
0.0014206257
0.0012890717
0.0011671536
0.0010541603
0.00094943378
0.00085236527
0.00076239137
0.00067899061
0.00060168028
0.00053001343
0.00046357626
0.00040198553
0.00034488635
0.00029194997
0.0002428719
0.00019737005
0.00015518307
0.00011606883
7.980296e-05
4.617757e-05
1.4999996e-05
0.14449738
0.13040629
0.11799169
0.10700063
0.09722777
0.088504685
0.080691916
0.073672989
0.067349866
0.061639436
0.056470778
0.051783011
0.047523578
0.043646883
0.040113174
0.036887648
0.033939708
0.031242355
0.028771682
0.026506452
0.024427739
0.022518635
0.02076399
0.019150201
0.017665024
0.016297414
0.015037392
0.013875921
0.012804807
0.011816607
0.010904551
0.01006247
0.0092847413
0.0085662275
0.0079022338
0.0072884641
0.0067209833
0.0061961841
0.0057107566
0.005261662
0.0048461078
0.0044615267
0.0041055566
0.0037760231
0.0034709236
0.0031884127
0.0029267891
0.0026844838
0.002460049
0.0022521485
0.0020595486
0.0018811098
0.0017157793
0.0015625843
0.0014206255
0.0012890716
0.0011671535
0.0010541602
0.00094943371
0.00085236521
0.00076239132
0.00067899057
0.00060168024
0.0005300134
0.00046357623
0.00040198551
0.00034488633
0.00029194995
0.00024287189
0.00019737003
0.00015518306
0.00011606882
7.9802952e-05
4.6177563e-05
1.499999e-05
0.14449584
0.13040511
0.11799078
0.10699991
0.097227201
0.088504231
0.080691551
0.073672694
0.067349627
0.061639241
0.056470618
0.051782879
0.04752347
0.043646793
0.040113099
0.036887585
0.033939655
0.031242311
0.028771646
0.026506421
0.024427713
0.022518613
0.020763972
0.019150186
0.017665011
0.016297403
0.015037382
0.013875913
0.0128048
0.011816601
0.010904546
0.010062466
0.0092847377
0.0085662244
0.0079022312
0.0072884618
0.0067209814
0.0061961824
0.0057107552
0.0052616608
0.0048461068
0.0044615258
0.0041055558
0.0037760224
0.0034709231
0.0031884122
0.0029267887
0.0026844834
0.0024600487
0.0022521483
0.0020595484
0.0018811096
0.0017157791
0.0015625841
0.0014206254
0.0012890715
0.0011671534
0.0010541601
0.00094943365
0.00085236515
0.00076239127
0.00067899053
0.0006016802
0.00053001337
0.0004635762
0.00040198549
0.00034488631
0.00029194994
0.00024287187
0.00019737002
0.00015518305
0.00011606881
7.9802944e-05
4.6177556e-05
1.4999984e-05
0.1444943
0.13040393
0.11798986
0.1069992
0.097226635
0.08850378
0.08069119
0.073672403
0.067349391
0.061639048
0.05647046
0.051782749
0.047523363
0.043646704
0.040113026
0.036887524
0.033939604
0.031242268
0.02877161
0.026506391
0.024427688
0.022518591
0.020763954
0.01915017
0.017664998
0.016297392
0.015037373
0.013875905
0.012804793
0.011816596
0.010904541
0.010062462
0.0092847341
0.0085662213
0.0079022286
0.0072884596
0.0067209795
0.0061961808
0.0057107538
0.0052616596
0.0048461057
0.0044615249
0.0041055551
0.0037760218
0.0034709225
0.0031884118
0.0029267883
0.0026844831
0.0024600484
0.002252148
0.0020595482
0.0018811094
0.001715779
0.001562584
0.0014206253
0.0012890714
0.0011671534
0.0010541601
0.00094943358
0.0008523651
0.00076239122
0.00067899049
0.00060168017
0.00053001334
0.00046357618
0.00040198547
0.00034488629
0.00029194992
0.00024287186
0.00019737001
0.00015518304
0.0001160688
7.9802936e-05
4.617755e-05
1.4999978e-05
0.14449277
0.13040275
0.11798895
0.10699849
0.097226075
0.088503336
0.080690834
0.073672116
0.067349158
0.061638859
0.056470306
0.051782622
0.047523258
0.043646617
0.040112954
0.036887464
0.033939554
0.031242226
0.028771575
0.026506361
0.024427663
0.022518571
0.020763936
0.019150155
0.017664985
0.016297381
0.015037364
0.013875897
0.012804787
0.01181659
0.010904536
0.010062458
0.0092847306
0.0085662184
0.007902226
0.0072884575
0.0067209776
0.0061961792
0.0057107525
0.0052616584
0.0048461048
0.0044615241
0.0041055543
0.0037760212
0.003470922
0.0031884113
0.0029267879
0.0026844828
0.0024600481
0.0022521478
0.0020595479
0.0018811092
0.0017157788
0.0015625839
0.0014206252
0.0012890713
0.0011671533
0.00105416
0.00094943352
0.00085236504
0.00076239117
0.00067899045
0.00060168013
0.00053001331
0.00046357615
0.00040198544
0.00034488627
0.00029194991
0.00024287184
0.00019737
0.00015518303
0.00011606879
7.9802929e-05
4.6177543e-05
1.4999973e-05
0.14449126
0.1304016
0.11798806
0.10699779
0.097225528
0.088502901
0.080690486
0.073671836
0.067348932
0.061638675
0.056470155
0.051782498
0.047523156
0.043646533
0.040112884
0.036887406
0.033939506
0.031242186
0.028771541
0.026506333
0.024427639
0.02251855
0.020763919
0.019150141
0.017664973
0.016297371
0.015037355
0.01387589
0.012804781
0.011816585
0.010904531
0.010062454
0.0092847273
0.0085662155
0.0079022236
0.0072884554
0.0067209759
0.0061961777
0.0057107512
0.0052616573
0.0048461038
0.0044615233
0.0041055536
0.0037760206
0.0034709215
0.0031884109
0.0029267875
0.0026844824
0.0024600478
0.0022521475
0.0020595477
0.001881109
0.0017157786
0.0015625837
0.0014206251
0.0012890712
0.0011671532
0.0010541599
0.00094943346
0.00085236499
0.00076239113
0.00067899041
0.0006016801
0.00053001328
0.00046357613
0.00040198542
0.00034488625
0.00029194989
0.00024287183
0.00019736999
0.00015518302
0.00011606878
7.9802922e-05
4.6177537e-05
1.4999967e-05
0.14448979
0.13040048
0.1179872
0.10699712
0.097225
0.088502482
0.080690152
0.073671567
0.067348714
0.061638498
0.05647001
0.05178238
0.047523058
0.043646452
0.040112817
0.03688735
0.033939459
0.031242147
0.028771508
0.026506305
0.024427616
0.022518531
0.020763902
0.019150127
0.017664961
0.016297361
0.015037347
0.013875883
0.012804774
0.011816579
0.010904527
0.01006245
0.0092847241
0.0085662128
0.0079022213
0.0072884534
0.0067209742
0.0061961762
0.0057107499
0.0052616562
0.0048461029
0.0044615225
0.004105553
0.00377602
0.003470921
0.0031884104
0.0029267872
0.0026844821
0.0024600476
0.0022521473
0.0020595475
0.0018811089
0.0017157785
0.0015625836
0.001420625
0.0012890711
0.0011671531
0.0010541599
0.0009494334
0.00085236494
0.00076239109
0.00067899037
0.00060168007
0.00053001325
0.0004635761
0.0004019854
0.00034488624
0.00029194988
0.00024287182
0.00019736998
0.00015518301
0.00011606877
7.9802915e-05
4.6177531e-05
1.4999962e-05
0.14448839
0.13039941
0.11798638
0.10699648
0.097224498
0.088502085
0.080689835
0.073671313
0.067348508
0.06163833
0.056469874
0.051782268
0.047522966
0.043646376
0.040112753
0.036887298
0.033939415
0.03124211
0.028771477
0.02650628
0.024427594
0.022518513
0.020763887
0.019150114
0.01766495
0.016297352
0.015037339
0.013875876
0.012804769
0.011816575
0.010904523
0.010062447
0.0092847211
0.0085662102
0.0079022191
0.0072884515
0.0067209726
0.0061961749
0.0057107487
0.0052616552
0.004846102
0.0044615218
0.0041055524
0.0037760195
0.0034709205
0.0031884101
0.0029267868
0.0026844818
0.0024600473
0.0022521471
0.0020595474
0.0018811087
0.0017157784
0.0015625835
0.0014206249
0.001289071
0.001167153
0.0010541598
0.00094943335
0.00085236489
0.00076239105
0.00067899034
0.00060168004
0.00053001323
0.00046357608
0.00040198538
0.00034488622
0.00029194986
0.00024287181
0.00019736997
0.000155183
0.00011606877
7.9802908e-05
4.6177525e-05
1.4999957e-05
0.14448707
0.13039841
0.11798561
0.10699588
0.09722403
0.088501715
0.08068954
0.073671076
0.067348317
0.061638175
0.056469747
0.051782164
0.047522881
0.043646306
0.040112695
0.036887249
0.033939375
0.031242077
0.028771449
0.026506256
0.024427574
0.022518496
0.020763873
0.019150102
0.01766494
0.016297343
0.015037331
0.01387587
0.012804764
0.01181657
0.010904519
0.010062443
0.0092847184
0.0085662079
0.0079022171
0.0072884498
0.0067209711
0.0061961736
0.0057107477
0.0052616543
0.0048461013
0.0044615211
0.0041055518
0.003776019
0.0034709201
0.0031884097
0.0029267865
0.0026844816
0.0024600471
0.0022521469
0.0020595472
0.0018811086
0.0017157782
0.0015625834
0.0014206248
0.0012890709
0.001167153
0.0010541597
0.0009494333
0.00085236485
0.00076239101
0.00067899031
0.00060168001
0.00053001321
0.00046357606
0.00040198537
0.0003448862
0.00029194985
0.0002428718
0.00019736996
0.00015518299
0.00011606876
7.9802902e-05
4.617752e-05
1.4999953e-05
0.14448586
0.1303975
0.11798491
0.10699534
0.097223606
0.088501379
0.080689273
0.073670862
0.067348144
0.061638035
0.056469633
0.051782071
0.047522804
0.043646242
0.040112643
0.036887205
0.033939339
0.031242046
0.028771424
0.026506235
0.024427556
0.022518481
0.02076386
0.019150091
0.017664931
0.016297335
0.015037325
0.013875864
0.012804759
0.011816566
0.010904516
0.010062441
0.0092847159
0.0085662058
0.0079022153
0.0072884483
0.0067209698
0.0061961725
0.0057107467
0.0052616535
0.0048461005
0.0044615205
0.0041055513
0.0037760185
0.0034709197
0.0031884094
0.0029267863
0.0026844813
0.0024600469
0.0022521467
0.002059547
0.0018811084
0.0017157781
0.0015625833
0.0014206247
0.0012890708
0.0011671529
0.0010541597
0.00094943325
0.00085236481
0.00076239098
0.00067899028
0.00060167999
0.00053001319
0.00046357605
0.00040198535
0.00034488619
0.00029194984
0.00024287179
0.00019736995
0.00015518298
0.00011606875
7.9802897e-05
4.6177516e-05
1.4999949e-05
0.1444848
0.1303967
0.1179843
0.10699487
0.097223234
0.088501086
0.080689039
0.073670675
0.067347994
0.061637913
0.056469533
0.051781989
0.047522737
0.043646187
0.040112597
0.036887167
0.033939307
0.03124202
0.028771402
0.026506216
0.024427541
0.022518468
0.020763849
0.019150082
0.017664923
0.016297329
0.015037319
0.013875859
0.012804755
0.011816563
0.010904513
0.010062438
0.0092847137
0.0085662039
0.0079022137
0.0072884469
0.0067209686
0.0061961715
0.0057107459
0.0052616528
0.0048460999
0.00446152
0.0041055508
0.0037760182
0.0034709194
0.0031884091
0.002926786
0.0026844811
0.0024600467
0.0022521465
0.0020595469
0.0018811083
0.001715778
0.0015625832
0.0014206246
0.0012890708
0.0011671529
0.0010541596
0.00094943321
0.00085236478
0.00076239095
0.00067899025
0.00060167997
0.00053001317
0.00046357603
0.00040198534
0.00034488618
0.00029194983
0.00024287178
0.00019736994
0.00015518298
0.00011606875
7.9802892e-05
4.6177512e-05
1.4999946e-05
0.14448391
0.13039603
0.11798378
0.10699447
0.097222923
0.088500841
0.080688844
0.073670519
0.067347868
0.061637811
0.056469451
0.051781921
0.047522681
0.043646141
0.040112559
0.036887136
0.033939281
0.031241998
0.028771383
0.026506201
0.024427528
0.022518457
0.02076384
0.019150074
0.017664916
0.016297323
0.015037315
0.013875855
0.012804751
0.01181656
0.01090451
0.010062436
0.0092847119
0.0085662024
0.0079022124
0.0072884458
0.0067209677
0.0061961707
0.0057107452
0.0052616522
0.0048460994
0.0044615195
0.0041055504
0.0037760178
0.0034709191
0.0031884088
0.0029267858
0.002684481
0.0024600466
0.0022521464
0.0020595468
0.0018811082
0.001715778
0.0015625832
0.0014206246
0.0012890707
0.0011671528
0.0010541596
0.00094943318
0.00085236475
0.00076239093
0.00067899023
0.00060167995
0.00053001315
0.00046357602
0.00040198533
0.00034488617
0.00029194982
0.00024287177
0.00019736993
0.00015518297
0.00011606874
7.9802889e-05
4.6177508e-05
1.4999943e-05
0.14448322
0.13039551
0.11798338
0.10699416
0.097222682
0.088500651
0.080688694
0.073670398
0.067347771
0.061637732
0.056469386
0.051781869
0.047522638
0.043646105
0.040112529
0.036887111
0.03393926
0.031241981
0.028771369
0.026506189
0.024427518
0.022518448
0.020763833
0.019150068
0.017664911
0.016297319
0.015037311
0.013875852
0.012804749
0.011816558
0.010904508
0.010062434
0.0092847106
0.0085662012
0.0079022114
0.007288445
0.006720967
0.0061961701
0.0057107447
0.0052616517
0.004846099
0.0044615192
0.0041055502
0.0037760176
0.0034709189
0.0031884087
0.0029267857
0.0026844808
0.0024600464
0.0022521463
0.0020595467
0.0018811082
0.0017157779
0.0015625831
0.0014206245
0.0012890707
0.0011671528
0.0010541596
0.00094943316
0.00085236473
0.00076239091
0.00067899022
0.00060167994
0.00053001314
0.00046357601
0.00040198532
0.00034488616
0.00029194981
0.00024287176
0.00019736993
0.00015518297
0.00011606874
7.9802886e-05
4.6177506e-05
1.4999941e-05
0.14448274
0.13039515
0.11798311
0.10699395
0.097222517
0.088500521
0.08068859
0.073670316
0.067347704
0.061637679
0.056469343
0.051781833
0.047522608
0.043646081
0.040112509
0.036887095
0.033939246
0.031241969
0.028771359
0.026506181
0.024427511
0.022518443
0.020763828
0.019150064
0.017664908
0.016297316
0.015037308
0.01387585
0.012804747
0.011816556
0.010904507
0.010062433
0.0092847096
0.0085662004
0.0079022107
0.0072884444
0.0067209665
0.0061961697
0.0057107443
0.0052616514
0.0048460988
0.004461519
0.00410555
0.0037760174
0.0034709188
0.0031884085
0.0029267856
0.0026844807
0.0024600464
0.0022521463
0.0020595467
0.0018811081
0.0017157779
0.0015625831
0.0014206245
0.0012890707
0.0011671528
0.0010541596
0.00094943314
0.00085236472
0.0007623909
0.00067899021
0.00060167993
0.00053001313
0.000463576
0.00040198531
0.00034488616
0.00029194981
0.00024287176
0.00019736993
0.00015518296
0.00011606874
7.9802884e-05
4.6177504e-05
1.4999939e-05
0.1444825
0.13039497
0.11798297
0.10699384
0.097222433
0.088500455
0.080688538
0.073670274
0.067347671
0.061637651
0.05646932
0.051781815
0.047522593
0.043646069
0.040112499
0.036887086
0.033939239
0.031241963
0.028771354
0.026506177
0.024427508
0.02251844
0.020763825
0.019150062
0.017664906
0.016297314
0.015037307
0.013875849
0.012804746
0.011816555
0.010904506
0.010062433
0.0092847092
0.0085662
0.0079022104
0.0072884441
0.0067209662
0.0061961695
0.0057107441
0.0052616513
0.0048460986
0.0044615188
0.0041055499
0.0037760173
0.0034709187
0.0031884085
0.0029267855
0.0026844807
0.0024600463
0.0022521462
0.0020595466
0.0018811081
0.0017157778
0.001562583
0.0014206245
0.0012890707
0.0011671527
0.0010541595
0.00094943313
0.00085236471
0.00076239089
0.0006789902
0.00060167992
0.00053001313
0.000463576
0.00040198531
0.00034488616
0.00029194981
0.00024287176
0.00019736992
0.00015518296
0.00011606874
7.9802883e-05
4.6177503e-05
1.4999938e-05
0.14448801
0.13040058
0.11798886
0.1070001
0.097229115
0.088507576
0.080696099
0.073678263
0.067356072
0.061646444
0.056478482
0.051791322
0.047532423
0.043656199
0.040122908
0.036897754
0.033950147
0.031253094
0.02878269
0.026517703
0.02443921
0.022530305
0.020775841
0.019162217
0.01767719
0.016309718
0.015049821
0.013888465
0.012817456
0.011829353
0.010917385
0.010075386
0.0092977313
0.0085792863
0.007915356
0.0073016446
0.0067342176
0.0062094679
0.0057240862
0.0052750337
0.0048595185
0.0044749734
0.0041190365
0.0037895338
0.0034844627
0.003201978
0.0029403787
0.0026980958
0.0024736818
0.0022658006
0.0020732184
0.0018947961
0.0017294808
0.0015762999
0.0014343542
0.0013028124
0.0011809055
0.0010679226
0.00096320572
0.00086614613
0.00077618049
0.00069278739
0.00061548415
0.00054382387
0.00047739279
0.0004158077
0.00035871375
0.00030578222
0.00025670864
0.00021121095
0.00016902783
0.00012991716
9.3654614e-05
6.0032298e-05
2.8857573e-05
0.14449081
0.1304085
0.1180013
0.10701654
0.097249112
0.088530749
0.080722117
0.073706838
0.06738695
0.061679402
0.056513323
0.051827871
0.047570525
0.043695714
0.040163711
0.036939733
0.0339932
0.03129713
0.028827627
0.026563465
0.02448573
0.022577521
0.020823697
0.019210662
0.017726176
0.016359202
0.015099765
0.013938832
0.012868214
0.011880471
0.010968835
0.010127143
0.0093497727
0.0086315897
0.0079679015
0.0073544139
0.0067871938
0.0062626355
0.0057774308
0.0053285421
0.0049131784
0.0045287735
0.0041729665
0.0038435839
0.003538624
0.0032562424
0.0029947385
0.0027525439
0.0025282118
0.0023204063
0.0021278944
0.0019495371
0.0017842821
0.0016311571
0.0014892632
0.0013577693
0.0012359069
0.0011229652
0.0010182865
0.0009212623
0.00083132947
0.00074796679
0.00067069173
0.00059905759
0.00053265073
0.00047108811
0.00041401497
0.00036110275
0.00031204706
0.00026656597
0.00022439823
0.00018530183
0.0001490525
0.00011544245
8.4279092e-05
0.14449642
0.13042435
0.11802618
0.10704942
0.097289096
0.088577083
0.080774139
0.073763971
0.067448689
0.061745301
0.056582987
0.05190095
0.047646708
0.043774721
0.040245293
0.037023666
0.034079282
0.031385178
0.028917476
0.026654965
0.024578745
0.022671928
0.020919383
0.019307524
0.017824121
0.016458144
0.015199625
0.014039539
0.012969702
0.011982679
0.011071708
0.01023063
0.0094538266
0.0087361674
0.0080729633
0.0074599232
0.0068931168
0.0063689411
0.0058840903
0.005435529
0.0050204683
0.0046363438
0.0042807963
0.0039516539
0.0036469165
0.0033647409
0.0031034277
0.0028614098
0.0026372413
0.0024295874
0.0022372159
0.0020589887
0.0018938543
0.001740841
0.0015990506
0.0014676526
0.0013458791
0.0012330198
0.0011284174
0.001031464
0.00094159676
0.00085829488
0.00078107619
0.00070949431
0.00064313588
0.00058161817
0.00052458666
0.00047171303
0.00042269313
0.00037724521
0.00033510823
0.00029604035
0.00025981747
0.00022623193
0.0001950913
0.14450484
0.13044812
0.11806348
0.1070987
0.097349045
0.088646551
0.080852135
0.073849631
0.067541253
0.061844102
0.056687434
0.052010518
0.047760928
0.043893177
0.04036761
0.037149507
0.034208344
0.031517188
0.029052186
0.026792151
0.024718202
0.022813471
0.021062844
0.019452749
0.017970969
0.016606487
0.015349345
0.014190528
0.013121862
0.012135919
0.011225946
0.010385788
0.0096098345
0.0088929606
0.0082304823
0.0076181131
0.007051927
0.0065283249
0.0060440047
0.0055959344
0.0051813279
0.0047976238
0.0044424653
0.0041136832
0.0038092793
0.0035274125
0.0032663853
0.0030246323
0.0028007091
0.0025932824
0.0024011215
0.0022230894
0.0020581357
0.0019052898
0.0017636546
0.0016324004
0.0015107602
0.0013980244
0.0012935365
0.0011966892
0.0011069203
0.0010237096
0.00094657539
0.00087507185
0.00080878605
0.00074733566
0.00069036657
0.00063755081
0.00058858456
0.00054318638
0.00050109551
0.00046207039
0.00042588715
0.00039233837
0.00036123182
0.14451604
0.13047978
0.11811318
0.10716437
0.097428923
0.088739114
0.080956062
0.073963769
0.067664592
0.06197575
0.056826605
0.052156512
0.047913122
0.044051015
0.040530592
0.037317185
0.034380315
0.031693085
0.029231681
0.026974944
0.024904023
0.023002072
0.021254
0.019646255
0.018166638
0.016804148
0.015548841
0.014391716
0.013324609
0.012340106
0.011431461
0.010592529
0.0098177084
0.009101881
0.0084403697
0.0078288944
0.0072635349
0.0067406972
0.006257084
0.0058096677
0.0053956665
0.0050125226
0.0046578826
0.0043295804
0.0040256209
0.0037441656
0.0034835194
0.0032421194
0.003018523
0.0028113992
0.0026195188
0.0024417466
0.0022770337
0.002124411
0.0019829825
0.0018519199
0.0017304573
0.0016178861
0.0015135507
0.0014168448
0.001327207
0.0012441177
0.0011670962
0.001095697
0.001029508
0.0009681473
0.00091126138
0.00085852272
0.00080962796
0.00076429605
0.00072226664
0.00068329848
0.00064716807
0.00061366826
0.00058260713
0.14453004
0.13051933
0.11817525
0.10724639
0.097528687
0.088854721
0.081085862
0.074106322
0.067818635
0.062140172
0.057000421
0.05233885
0.048103205
0.044248145
0.040734148
0.037526606
0.034595096
0.031912772
0.029455861
0.027203244
0.025136103
0.023237624
0.021492744
0.019887933
0.018411018
0.017051015
0.015798
0.014642987
0.013577829
0.012595123
0.011688137
0.010850738
0.010077331
0.0093628109
0.0087025075
0.0080921487
0.0075278214
0.0070059384
0.0065232082
0.0060766089
0.0056633636
0.0052809192
0.0049269268
0.0045992241
0.0042958196
0.0040148781
0.0037547079
0.0035137487
0.0032905606
0.003083815
0.002892285
0.0027148373
0.0025504252
0.0023980812
0.0022569109
0.0021260877
0.0020048468
0.0018924811
0.0017883363
0.001691807
0.0016023328
0.0015193953
0.0014425144
0.0013712456
0.0013051774
0.0012439288
0.0011871467
0.0011345044
0.0010856989
0.0010404498
0.00099849709
0.00095960009
0.00092353565
0.00089009702
0.0008590926
0.14454682
0.13056674
0.11824965
0.10734471
0.09764828
0.088993305
0.08124146
0.074277208
0.068003296
0.062337274
0.057208786
0.05255743
0.048331068
0.044484458
0.040978163
0.037777652
0.034852568
0.032176124
0.029724599
0.02747692
0.025414311
0.023519995
0.02177894
0.020177648
0.018703971
0.01734695
0.016096682
0.014944202
0.013881379
0.012900828
0.011995831
0.011160268
0.010388557
0.0096756036
0.009016748
0.0084077276
0.0078446378
0.0073238991
0.0068422275
0.0063966075
0.0059842684
0.0056026627
0.0052494465
0.0049224624
0.0046197232
0.0043393978
0.0040797982
0.0038393673
0.0036166686
0.0034103764
0.0032192664
0.0030422078
0.0028781563
0.0027261463
0.0025852856
0.0024547493