/*--------------------------------*- C++ -*----------------------------------*\
| =========                 |                                                 |
| \\      /  F ield         | OpenFOAM: The Open Source CFD Toolbox           |
|  \\    /   O peration     | Version:  2212                                  |
|   \\  /    A nd           | Website:  www.openfoam.com                      |
|    \\/     M anipulation  |                                                 |
\*---------------------------------------------------------------------------*/
FoamFile
{
    version     2.0;
    format      ascii;
    arch        "LSB;label=32;scalar=64";
    class       volScalarField;
    location    "0.5";
    object      k;
}
// * * * * * * * * * * * * * * * * * * * * * * * * * * * * * * * * * * * * * //

dimensions      [0 2 -2 0 0 0 0];

internalField   nonuniform List<scalar> 
15300
(
3.1437792e-05
3.1441001e-05
3.1438202e-05
3.1437495e-05
3.1442322e-05
3.1452605e-05
3.1465522e-05
3.1480086e-05
3.1488465e-05
3.1494452e-05
3.1480888e-05
3.1421259e-05
3.1443144e-05
3.1652664e-05
3.876612e-05
0.00023126075
0.0043276486
0.047706735
0.21753017
0.4590735
0.48174228
0.66880652
0.79728473
0.89092921
0.96709578
1.0323852
1.0896785
1.1402433
1.1849967
1.2241563
1.2580517
1.2872223
1.31247
1.3345514
1.3534832
1.3693933
1.3823792
1.3929214
1.4012291
1.4075588
1.4119567
1.4145628
1.4154618
1.4147524
1.4124779
1.4086694
1.4034785
1.3972404
1.3902006
1.3827016
1.3748984
1.3673696
1.360425
1.3545771
1.3499369
1.3464091
1.3436512
1.3409366
1.3360071
1.3263991
1.3040714
1.2583615
1.1907226
1.1009247
0.98679188
0.84735762
0.68250087
0.50453713
0.33047177
0.18258512
0.082302923
0.028779445
0.0071217563
0.0012064446
0.0022283479
3.1314736e-05
3.1316003e-05
3.1318378e-05
3.1320115e-05
3.1324274e-05
3.1324614e-05
3.1316664e-05
3.1331178e-05
3.1338806e-05
3.1346563e-05
3.1335686e-05
3.1315592e-05
3.1355496e-05
3.1661849e-05
4.029318e-05
0.00026468409
0.0048508079
0.052048558
0.23465417
0.44703031
0.50006054
0.67133296
0.80536236
0.90189295
0.97909784
1.0445896
1.1016645
1.1520112
1.1963617
1.2347435
1.2673349
1.2947801
1.3178825
1.3371019
1.352599
1.3649855
1.3741606
1.3804017
1.3839016
1.3849441
1.3837825
1.3806566
1.3758262
1.3695783
1.3622355
1.3541705
1.3458039
1.3375522
1.3298576
1.3231685
1.3179407
1.3144697
1.3128909
1.3131409
1.3148542
1.3173277
1.3194298
1.3195183
1.3152578
1.3024221
1.2772792
1.2359003
1.1746454
1.0899314
0.97886237
0.84036644
0.67747573
0.50007126
0.32583749
0.17959603
0.080569593
0.028220802
0.0069830012
0.0011840857
0.0022108601
3.1201095e-05
3.120943e-05
3.1212593e-05
3.1217813e-05
3.1227683e-05
3.1240763e-05
3.1255385e-05
3.1273272e-05
3.1284552e-05
3.1289828e-05
3.1273957e-05
3.1217826e-05
3.1251459e-05
3.1719292e-05
4.3395198e-05
0.00033519995
0.0058697968
0.060137528
0.25265154
0.44386111
0.51621618
0.67743432
0.81546489
0.91493227
0.99328329
1.059079
1.116032
1.1659298
1.2093677
1.2463513
1.2771048
1.3022448
1.3224142
1.3380929
1.3498806
1.3578067
1.3626935
1.3646152
1.3638376
1.360641
1.3553675
1.3483891
1.3401308
1.3310729
1.3217245
1.3125955
1.3041599
1.2968391
1.2909974
1.2869107
1.2847376
1.2844024
1.2856273
1.2878657
1.2903055
1.2918921
1.2913984
1.2871561
1.2771642
1.2590123
1.2300894
1.1875616
1.1278833
1.0469453
0.9409414
0.80806537
0.65123811
0.47998283
0.31195675
0.17147541
0.076777727
0.026872651
0.0066493979
0.0011321222
0.0021390661
3.1111656e-05
3.1116113e-05
3.1123053e-05
3.1129897e-05
3.1138712e-05
3.1143732e-05
3.1142294e-05
3.1160528e-05
3.1171233e-05
3.1175021e-05
3.1159e-05
3.1135605e-05
3.1190886e-05
3.1870378e-05
4.802847e-05
0.00042608931
0.0070462494
0.067652519
0.26682375
0.4451233
0.52991119
0.68628391
0.82524786
0.92671857
1.0057533
1.0715148
1.1281284
1.177425
1.2199256
1.2556481
1.2847983
1.3078544
1.3253616
1.3379722
1.346669
1.3517535
1.353695
1.3527531
1.3491971
1.3434207
1.3358727
1.327047
1.3174564
1.3076134
1.2980211
1.2891563
1.281453
1.2752599
1.2707952
1.2681165
1.2670948
1.2673803
1.268472
1.2696808
1.2701704
1.2690085
1.2650146
1.2567658
1.2425103
1.2202169
1.1875295
1.141643
1.0792421
0.99670599
0.89084311
0.76044102
0.60870325
0.44516463
0.28693071
0.15652577
0.069747244
0.02436505
0.0060273091
0.001031775
0.0019802002
3.1036666e-05
3.10464e-05
3.1052702e-05
3.1061239e-05
3.1073448e-05
3.1087255e-05
3.1101295e-05
3.1123387e-05
3.1138932e-05
3.1141687e-05
3.1118449e-05
3.1066066e-05
3.1126513e-05
3.2205448e-05
5.7568552e-05
0.0006064859
0.0088242143
0.078186583
0.28289729
0.4487305
0.54447618
0.69818916
0.83739233
0.9403975
1.0201414
1.085994
1.1423013
1.1908507
1.2321045
1.2661054
1.2930551
1.313409
1.3278441
1.3373211
1.3425923
1.3444851
1.3434934
1.3398095
1.3338152
1.325975
1.3168055
1.3068549
1.2966756
1.2867982
1.2777085
1.2698207
1.2634478
1.2587763
1.2558442
1.2545471
1.2545595
1.2554693
1.2567168
1.2576473
1.2575606
1.2555093
1.2503527
1.2406687
1.2248213
1.2009004
1.1666059
1.1191494
1.055249
0.97139013
0.86461746
0.73420904
0.58403928
0.42401758
0.27115872
0.14687248
0.065151301
0.022717778
0.0056160643
0.00095774841
0.0018189541
3.0984082e-05
3.0989875e-05
3.0996895e-05
3.1004616e-05
3.1014978e-05
3.1022174e-05
3.1025584e-05
3.1047713e-05
3.1063443e-05
3.106601e-05
3.1041142e-05
3.1012691e-05
3.1110211e-05
3.2742453e-05
6.8973483e-05
0.00078438723
0.010958892
0.088354126
0.29637485
0.45426768
0.5576954
0.71025312
0.84924601
0.95306394
1.0330545
1.0986265
1.1543128
1.2019159
1.2418884
1.2742776
1.2992645
1.317326
1.3292801
1.3362173
1.339069
1.3387963
1.3357805
1.3303439
1.3229236
1.3140335
1.3042209
1.2940406
1.2840265
1.2746639
1.2663654
1.259448
1.2541148
1.2504426
1.2483973
1.2477849
1.2482891
1.2495186
1.2509974
1.2519983
1.2517277
1.2491411
1.2430459
1.2321005
1.2147687
1.1891423
1.1529349
1.1034083
1.0374015
0.95162356
0.84349562
0.71278719
0.56383475
0.40667932
0.25824599
0.13899495
0.061414571
0.021380958
0.0052818242
0.00089480875
0.0016675085
3.0941525e-05
3.0951877e-05
3.095694e-05
3.096601e-05
3.0979426e-05
3.0992517e-05
3.1005364e-05
3.1032621e-05
3.1053442e-05
3.1056363e-05
3.1026038e-05
3.0976984e-05
3.1130796e-05
3.3874658e-05
9.2747544e-05
0.0011362319
0.013744249
0.10096208
0.31221474
0.46320091
0.57265113
0.72469262
0.86324995
0.96755175
1.0477787
1.1131985
1.1683556
1.214975
1.2534554
1.2838487
1.306396
1.3217371
1.3309375
1.3350838
1.3355833
1.3330936
1.3281295
1.3210752
1.3124174
1.3026948
1.2924642
1.2822744
1.2726349
1.2639895
1.2566929
1.2509951
1.2470386
1.244888
1.2444182
1.245336
1.247218
1.2495795
1.2517888
1.2532649
1.2531886
1.2504675
1.2438755
1.2320006
1.2132039
1.1856952
1.1472751
1.0953293
1.0268694
0.93885563
0.82902554
0.69753668
0.54909416
0.39380542
0.24855703
0.13305844
0.058596843
0.020372752
0.0050291598
0.00084502042
0.0015367992
3.0917744e-05
3.0925406e-05
3.0930659e-05
3.0939435e-05
3.0951146e-05
3.0960521e-05
3.0969593e-05
3.1000449e-05
3.1023734e-05
3.1029234e-05
3.0999776e-05
3.096694e-05
3.118905e-05
3.5289175e-05
0.0001174955
0.0014577399
0.017042826
0.11339192
0.32576694
0.47186636
0.58671368
0.7389377
0.87691569
0.9812357
1.0612999
1.1261858
1.180453
1.2258281
1.2627221
1.2912269
1.3116828
1.3249137
1.3319522
1.3341455
1.3329087
1.328851
1.3225675
1.3145096
1.3052028
1.2951932
1.2850234
1.2752118
1.2662275
1.2584667
1.2522372
1.2477545
1.2451512
1.2443267
1.2448541
1.246528
1.2491133
1.252195
1.255152
1.257045
1.2569435
1.2536793
1.2460061
1.2325313
1.2116483
1.1816751
1.1405964
1.0859324
1.0148758
0.92461279
0.81318143
0.68111231
0.53344347
0.38029793
0.23850489
0.12696432
0.055725501
0.019348602
0.0047728528
0.00079499495
0.0014076789
3.0899531e-05
3.0912129e-05
3.0916366e-05
3.0926103e-05
3.0940059e-05
3.0954743e-05
3.0970236e-05
3.1003646e-05
3.1031493e-05
3.1036366e-05
3.1003728e-05
3.0975786e-05
3.1328919e-05
3.8309498e-05
0.00016962322
0.0020939013
0.021036263
0.12772784
0.34170315
0.48339642
0.60273158
0.7552748
0.89253875
0.99663884
1.0765065
1.1409806
1.194504
1.238689
1.2738928
1.3002637
1.3183118
1.3289983
1.333453
1.3336311
1.3306012
1.3250622
1.3175637
1.3086183
1.298767
1.2885683
1.2785639
1.269255
1.261082
1.2544138
1.2495369
1.246563
1.2452904
1.2454004
1.2470604
1.2501401
1.2542363
1.2586737
1.2625913
1.2648824
1.2645369
1.2603406
1.251107
1.2355983
1.2124878
1.180131
1.1364948
1.0791549
1.005502
0.91296083
0.79986662
0.6670936
0.51997262
0.36861257
0.22979967
0.12169841
0.053250835
0.018466835
0.0045520208
0.0007510945
0.0012905502
3.0900026e-05
3.0913299e-05
3.0917528e-05
3.0927468e-05
3.0941765e-05
3.0957057e-05
3.0973669e-05
3.1008798e-05
3.1036373e-05
3.1042114e-05
3.1011429e-05
3.0993313e-05
3.1517569e-05
4.1650021e-05
0.00021901259
0.0026285713
0.025680393
0.14206023
0.3555293
0.49422683
0.61798096
0.77121475
0.90770714
1.0113097
1.0906768
1.1543776
1.2067606
1.2494289
1.282803
1.3071522
1.3231595
1.3318253
1.3346498
1.3335338
1.329126
1.3224909
1.3141481
1.3046717
1.2946173
1.2845399
1.2749476
1.2663093
1.2590542
1.2535085
1.2496898
1.2475074
1.2470929
1.2484852
1.2515588
1.2559568
1.2610809
1.2661299
1.2701483
1.2720277
1.2707823
1.265253
1.2543168
1.2367792
1.211213
1.176018
1.1293625
1.0691442
0.9928676
0.89814724
0.7836026
0.65045111
0.5042455
0.35523491
0.22000443
0.11585916
0.050531639
0.017501581
0.0043108486
0.0007043769
0.0011715845
3.0903228e-05
3.0917639e-05
3.09219e-05
3.0932542e-05
3.0947767e-05
3.0964819e-05
3.0984629e-05
3.1025483e-05
3.1057509e-05
3.1063926e-05
3.103378e-05
3.1037362e-05
3.1930484e-05
4.8838339e-05
0.00032329399
0.0036863186
0.031076861
0.15785252
0.37171945
0.50769491
0.63526898
0.78911678
0.92470891
1.0276175
1.1064267
1.1694627
1.2208985
1.2622089
1.2937735
1.3159693
1.3297175
1.335918
1.3368054
1.3338201
1.3281645
1.3205599
1.3115515
1.3016395
1.2914275
1.2815023
1.2724298
1.2646921
1.2585135
1.2538722
1.2509925
1.2502302
1.2516187
1.2551076
1.2602724
1.2664446
1.2728309
1.2785382
1.282516
1.2837404
1.2811862
1.2737617
1.2604034
1.2399982
1.211408
1.1733559
1.1238703
1.0608248
0.98191389
0.88497657
0.76892282
0.63529725
0.48982807
0.34296158
0.21104143
0.11054195
0.048064974
0.016627237
0.0040923667
0.00066168657
0.0010610949
3.0911261e-05
3.092572e-05
3.0932139e-05
3.0941004e-05
3.0957214e-05
3.0975484e-05
3.0996918e-05
3.1039602e-05
3.1072196e-05
3.1079219e-05
3.1053156e-05
3.1079268e-05
3.2384173e-05
5.6005234e-05
0.00041390384
0.0045149972
0.037211055
0.17378064
0.38591126
0.52020386
0.65179237
0.80647407
0.94113178
1.0432016
1.1212534
1.1833096
1.2333799
1.2729306
1.3024825
1.3226592
1.3343389
1.3387179
1.3384106
1.3344404
1.3278778
1.3194261
1.3099623
1.2999429
1.2899204
1.2804708
1.2720777
1.2649259
1.25927
1.2554589
1.253815
1.2543252
1.2570411
1.2618175
1.2681374
1.2752345
1.2821837
1.2879636
1.291407
1.2916577
1.2876209
1.2783264
1.2628242
1.2401094
1.2089144
1.1677442
1.1151499
1.0491953
0.96768577
0.86865734
0.75131689
0.6175531
0.47326512
0.32909467
0.2010714
0.10470665
0.045380333
0.015678839
0.0038558648
0.00061649812
0.00094896051
3.0919966e-05
3.0939491e-05
3.0942203e-05
3.0958549e-05
3.0976851e-05
3.0997753e-05
3.1023066e-05
3.107152e-05
3.1109086e-05
3.1118406e-05
3.1096232e-05
3.117329e-05
3.3381032e-05
7.1445674e-05
0.00060455667
0.0061529759
0.044170984
0.19080629
0.40245466
0.53530347
0.67043497
0.82577191
0.9593622
1.0604089
1.1376093
1.198761
1.2476906
1.285762
1.3134932
1.3316074
1.3408996
1.3434041
1.3413369
1.3358142
1.3281944
1.3192566
1.3094192
1.299376
1.2896292
1.2805621
1.2725235
1.2659939
1.2614459
1.2593544
1.259663
1.2623808
1.2672936
1.2739375
1.281679
1.2896805
1.2969526
1.3024337
1.3049502
1.3036995
1.2976243
1.2858284
1.2674213
1.2414613
1.2072021
1.1631767
1.1076831
1.0388865
0.9547791
0.85363082
0.73495818
0.6009896
0.45777659
0.31614621
0.19180478
0.09931701
0.042911612
0.014808174
0.0036387811
0.00057481166
0.00084448887
3.0937237e-05
3.0954221e-05
3.096205e-05
3.0971092e-05
3.0990926e-05
3.1013651e-05
3.104123e-05
3.1092123e-05
3.1131018e-05
3.1141679e-05
3.1125264e-05
3.125528e-05
3.4380925e-05
8.5546956e-05
0.00075924266
0.0073670739
0.051904215
0.20808981
0.41708622
0.54926614
0.68827135
0.84440179
0.97688938
1.076861
1.1531146
1.2131188
1.260497
1.2966115
1.3221762
1.3382573
1.3454628
1.3466201
1.3434499
1.3371879
1.328978
1.3196208
1.3096711
1.2996472
1.2900344
1.2812786
1.2738284
1.2681341
1.2646388
1.2636031
1.2650703
1.2690291
1.2752052
1.2830733
1.2917959
1.3003698
1.3077039
1.3126192
1.3141253
1.3113423
1.3033365
1.2893161
1.2685029
1.2399742
1.2026454
1.1553428
1.0967269
1.0250236
0.9383616
0.83523754
0.71549335
0.58171313
0.44008345
0.30160295
0.18156436
0.093443137
0.040243159
0.013870186
0.0034053997
0.0005310529
0.00073989781
3.0948309e-05
3.0971981e-05
3.0974719e-05
3.0994899e-05
3.1018831e-05
3.1045331e-05
3.1077992e-05
3.1135238e-05
3.1179826e-05
3.1194567e-05
3.1186803e-05
3.1435767e-05
3.6586947e-05
0.00011592074
0.0010847537
0.0097743944
0.060575668
0.22620171
0.4340995
0.56591347
0.7083657
0.86505212
0.99630616
1.0950169
1.1701774
1.2290498
1.2750979
1.3096374
1.3334995
1.347397
1.3524856
1.3521068
1.3473633
1.3397991
1.3305734
1.3205619
1.3104127
1.3004532
1.2911779
1.2831271
1.2767923
1.2726413
1.2710622
1.2720234
1.2756799
1.2818169
1.2899046
1.2991662
1.3086921
1.3174268
1.3242648
1.3279283
1.3278096
1.32283
1.3122098
1.2952232
1.2711403
1.2392976
1.1988976
1.1485406
1.0868476
1.0122002
0.92291518
0.81774511
0.6968718
0.56323453
0.42313563
0.28772823
0.1718641
0.087923405
0.03774813
0.012994787
0.0031877062
0.00049030295
0.00064281634
3.0969711e-05
3.0989892e-05
3.0998842e-05
3.1011547e-05
3.1035344e-05
3.1064193e-05
3.1099887e-05
3.1160328e-05
3.1207157e-05
3.1223935e-05
3.1225153e-05
3.1593275e-05
3.8637061e-05
0.00014190244
0.0013344114
0.011478041
0.07002113
0.24469586
0.44928204
0.58128708
0.72759367
0.88492383
1.0148924
1.112351
1.1864223
1.2440115
1.2883601
1.3208269
1.3424399
1.3539299
1.3573464
1.3557348
1.3501218
1.3420206
1.3324927
1.3222886
1.3119606
1.3020732
1.2931309
1.2856314
1.2800369
1.2769306
1.2763957
1.2785914
1.2835244
1.2908887
1.3001267
1.3103541
1.3204713
1.3293075
1.3356759
1.3383711
1.3367765
1.3299002
1.3170445
1.2975734
1.2708516
1.236076
1.1922336
1.1385154
1.0735992
0.99596396
0.90410268
0.79703793
0.67531714
0.54224641
0.404202
0.27247086
0.16136377
0.082028046
0.03510368
0.012069769
0.0029580992
0.0004482247
0.00054700843
3.0981321e-05
3.1008907e-05
3.1013148e-05
3.103725e-05
3.106764e-05
3.1101236e-05
3.1143322e-05
3.1211282e-05
3.1264873e-05
3.1287358e-05
3.1306496e-05
3.1942145e-05
4.3173717e-05
0.00019801172
0.0018601137
0.014869549
0.080560858
0.2638442
0.46694461
0.59958126
0.74932349
0.90701552
1.0355783
1.1315937
1.2043594
1.2605892
1.3034248
1.3342149
1.354182
1.3634456
1.3653388
1.3621721
1.355179
1.3459126
1.3355049
1.3247974
1.3144433
1.3049962
1.29691
1.2906059
1.2866432
1.285442
1.287001
1.2915365
1.2988128
1.3082843
1.3190805
1.3301726
1.3404303
1.3486808
1.353597
1.354489
1.3504399
1.3406764
1.3245928
1.3016245
1.2711871
1.2329539
1.1857704
1.1286614
1.0604149
0.97966517
0.88511712
0.77609911
0.65354226
0.52103641
0.38518902
0.25729189
0.15103933
0.076293814
0.032547046
0.011177462
0.0027368705
0.00040821066
0.00045856061
3.1003541e-05
3.102752e-05
3.1038027e-05
3.1056452e-05
3.1085328e-05
3.1121735e-05
3.116741e-05
3.1239157e-05
3.1295815e-05
3.1321523e-05
3.1357953e-05
3.224752e-05
4.7152006e-05
0.00024352562
0.0022474841
0.01719338
0.091867118
0.28352647
0.48287123
0.61649169
0.77012026
0.92822525
1.0552985
1.1499103
1.2214693
1.2763087
1.3173155
1.3459591
1.3633745
1.3702297
1.3707174
1.3663227
1.3586299
1.3490666
1.3386587
1.3281107
1.3179621
1.3087173
1.300896
1.295042
1.29217
1.2920232
1.294902
1.3007919
1.309353
1.3199419
1.3316749
1.3433608
1.3537223
1.3615365
1.3653486
1.3648519
1.3589347
1.3469599
1.328381
1.3026914
1.2693689
1.2275457
1.1767563
1.116064
1.044362
0.96043318
0.86321527
0.75237584
0.62924715
0.49764246
0.36449193
0.24100185
0.14012664
0.070310728
0.02989843
0.010255619
0.0025086866
0.00036767799
0.00037273212
3.1014759e-05
3.1045903e-05
3.1054265e-05
3.1082588e-05
3.11192e-05
3.1161967e-05
3.1215022e-05
3.1295183e-05
3.1359895e-05
3.1393543e-05
3.1467219e-05
3.2931958e-05
5.598618e-05
0.00034222219
0.0030662071
0.021847835
0.10451401
0.3037976
0.50147333
0.6367286
0.79382004
0.95201054
1.0774911
1.1705077
1.2405579
1.293781
1.3330862
1.3601422
1.3754286
1.380507
1.3798022
1.3740445
1.3651426
1.3545607
1.3433348
1.3323099
1.3222148
1.3136806
1.3072333
1.3035724
1.3028244
1.3050596
1.3105384
1.319023
1.3299519
1.3424224
1.3552331
1.3671535
1.3769444
1.3832298
1.3851162
1.3819342
1.3728012
1.3571811
1.3346318
1.3047469
1.267235
1.2214543
1.1666928
1.1021193
1.0267339
0.9394871
0.83956016
0.72697148
0.60346284
0.47306134
0.34300218
0.22433197
0.12913782
0.064364418
0.027283728
0.0093477971
0.0022843744
0.0003288326
0.00029570189
3.1036252e-05
3.1064813e-05
3.1079239e-05
3.1102461e-05
3.1139353e-05
3.1183749e-05
3.1240843e-05
3.1325278e-05
3.1393697e-05
3.1432141e-05
3.1540547e-05
3.3526686e-05
6.3443239e-05
0.00041922472
0.0036539409
0.024969126
0.11792093
0.32480306
0.51847278
0.65549906
0.81651634
0.97480812
1.098562
1.1900189
1.258741
1.3104966
1.347936
1.372662
1.384929
1.3880963
1.3857393
1.3788718
1.3694156
1.3586899
1.3477833
1.3373945
1.3280265
1.3201465
1.3142318
1.3115203
1.311456
1.3148341
1.3217277
1.3316379
1.3438017
1.3571957
1.3706228
1.3826745
1.3920072
1.3969581
1.3973718
1.3921216
1.3805841
1.3623046
1.3368849
1.303865
1.2627133
1.213049
1.1543148
1.0857606
1.0065392
0.91582064
0.81310478
0.69883637
0.57521014
0.44642197
0.32000221
0.20675137
0.11773445
0.058274141
0.024624192
0.0084268863
0.0020571658
0.00029011299
0.00022226363
3.1047166e-05
3.1083589e-05
3.1093376e-05
3.1128509e-05
3.1173344e-05
3.1226843e-05
3.129217e-05
3.1385851e-05
3.1463331e-05
3.1513027e-05
3.1698788e-05
3.4869229e-05
8.0115737e-05
0.00058698232
0.0048933578
0.031035953
0.1330542
0.34645581
0.53846978
0.67821756
0.84273631
1.0007443
1.1226903
1.2124077
1.2794135
1.3292528
1.3646582
1.3875964
1.3976892
1.3996615
1.3961677
1.3881973
1.3777615
1.3663269
1.3547941
1.3439614
1.3346744
1.3276591
1.3240543
1.3236586
1.3268262
1.3336376
1.3437349
1.3565247
1.3710196
1.3859428
1.3998344
1.4113447
1.4190273
1.4217852
1.4192783
1.4104498
1.3948056
1.3719606
1.341593
1.3034848
1.2577997
1.203523
1.1401927
1.067212
0.98389716
0.88963748
0.78424463
0.66857792
0.54520897
0.41853277
0.29630484
0.18897192
0.10642366
0.052318759
0.022040965
0.0075345263
0.0018374804
0.00025404317
0.00016127586
3.1068425e-05
3.1101674e-05
3.1118812e-05
3.1151393e-05
3.1195852e-05
3.1250481e-05
3.1320262e-05
3.1418668e-05
3.1500434e-05
3.1557404e-05
3.1814478e-05
3.6027947e-05
9.3850973e-05
0.00071531629
0.0057816847
0.035686404
0.14896685
0.36910824
0.55707043
0.69942547
0.86787024
1.0255622
1.1454933
1.2334612
1.2989769
1.3472474
1.38096
1.4009095
1.4081126
1.4083529
1.402959
1.3939692
1.3831293
1.3716311
1.3606441
1.3510874
1.3433451
1.3378885
1.3357907
1.3364048
1.3406578
1.3486191
1.3599735
1.3739729
1.3894376
1.4049031
1.4188173
1.4297394
1.4358343
1.4369367
1.4320679
1.4204963
1.4017631
1.3755233
1.3414473
1.2991407
1.2481693
1.1887328
1.120335
1.0424499
0.95457634
0.85642983
0.74827583
0.63150114
0.50898178
0.38550091
0.26884698
0.16886049
0.093923371
0.045843245
0.019254413
0.0065749125
0.0016017391
0.00021645418
0.00010399878
3.1080118e-05
3.1120061e-05
3.1137979e-05
3.1179728e-05
3.1233005e-05
3.1297235e-05
3.1376737e-05
3.1485231e-05
3.1577102e-05
3.1650439e-05
3.2060772e-05
3.8534197e-05
0.00012336102
0.00098670565
0.0076028899
0.043436654
0.16715023
0.39261517
0.5791499
0.72547941
0.89744604
1.0543619
1.1722238
1.2582949
1.3218586
1.3679201
1.3992707
1.4164818
1.4218468
1.4213566
1.4151886
1.405474
1.3939762
1.3822466
1.371162
1.3613152
1.3535828
1.3499753
1.3497518
1.3538405
1.3623315
1.3747617
1.3902559
1.4075889
1.4252785
1.4417363
1.4554343
1.4647771
1.4683747
1.4663415
1.4573217
1.4408242
1.416506
1.3840279
1.3436309
1.2959256
1.240175
1.1759106
1.1027459
1.0203269
0.9283554
0.82676058
0.71623099
0.59863096
0.47696737
0.35643689
0.24487641
0.15153044
0.083318225
0.040409259
0.016926992
0.0057746248
0.0014054721
0.00018622686
6.4139467e-05
3.1103556e-05
3.1142328e-05
3.1166072e-05
3.1204411e-05
3.1259714e-05
3.1325478e-05
3.1408633e-05
3.1522378e-05
3.1619227e-05
3.1705433e-05
3.2277816e-05
4.1012015e-05
0.00015075327
0.0012198311
0.0090536439
0.050164636
0.18622066
0.41746549
0.60017295
0.75005069
0.92582544
1.0818504
1.197335
1.281397
1.3432452
1.3875763
1.4172152
1.4309204
1.4342508
1.4315412
1.4233065
1.4123105
1.4005809
1.389026
1.3786818
1.370807
1.3664603
1.365583
1.3680074
1.3742895
1.3844698
1.3982413
1.41482
1.4329308
1.4509449
1.4671143
1.4797906
1.4866445
1.4878492
1.4822884
1.4690908
1.447911
1.4185623
1.3810678
1.3351938
1.2803575
1.2166908
1.1443833
1.0634329
0.97382734
0.87570711
0.76960585
0.65674317
0.53943556
0.42106761
0.30747797
0.2062322
0.12484864
0.067594794
0.032525866
0.013582231
0.004628517
0.0011253682
0.00014596085
2.8336845e-05
3.111793e-05
3.1165195e-05
3.1186155e-05
3.1236059e-05
3.1300378e-05
3.1377295e-05
3.14731e-05
3.1597779e-05
3.1706026e-05
3.1819736e-05
3.2719648e-05
4.5971212e-05
0.00020453129
0.00166479
0.011667316
0.060209214
0.20811908
0.443351
0.62514278
0.78043996
0.95964818
1.1142407
1.2273424
1.3093326
1.3689463
1.410709
1.4368945
1.4475406
1.4494753
1.445776
1.4373426
1.4265326
1.4148048
1.4036549
1.3941379
1.3868267
1.3837409
1.383846
1.3890438
1.3996251
1.4151829
1.434587
1.4561503
1.4778983
1.4978412
1.5141684
1.524965
1.5289754
1.5265297
1.516083
1.4973262
1.4701412
1.4345699
1.3906662
1.3383195
1.2775286
1.2083344
1.1308242
1.0451092
0.9514785
0.85040607
0.74281004
0.63032152
0.51521026
0.40058609
0.29121614
0.1940764
0.1167467
0.062987085
0.030292564
0.01265912
0.0043166932
0.0010493504
0.00013421255
1.2591619e-05
3.1147624e-05
3.1190692e-05
3.1219628e-05
3.1268054e-05
3.1333558e-05
3.1412258e-05
3.1509278e-05
3.1639569e-05
3.1753607e-05
3.1888065e-05
3.3067195e-05
4.9969785e-05
0.00024557802
0.0019876288
0.013642678
0.068270651
0.22779069
0.46695909
0.64595302
0.80540418
0.98757129
1.1409408
1.2519576
1.3321833
1.3902637
1.4307939
1.454745
1.4633797
1.464128
1.4584749
1.4481883
1.4359369
1.4238837
1.4132916
1.4049102
1.4008073
1.4010201
1.4059813
1.4156672
1.4296658
1.4472886
1.4675456
1.4890965
1.5102781
1.5292425
1.5441883
1.5529627
1.5550388
1.549761
1.5362325
1.5142695
1.4838439
1.4450703
1.3982129
1.3434869
1.2806995
1.2097518
1.1306861
1.0437116
0.94917616
0.84784591
0.74096276
0.62990303
0.51625832
0.40277711
0.29416423
0.19720383
0.11933027
0.064706916
0.031238784
0.013088166
0.0044691487
0.001086983
0.00013894368
1.2340205e-05
3.1165915e-05
3.1219053e-05
3.1245941e-05
3.1305672e-05
3.1380412e-05
3.147021e-05
3.1581295e-05
3.172421e-05
3.1851106e-05
3.2023794e-05
3.3648778e-05
5.6712654e-05
0.00031324006
0.0025016697
0.016339513
0.077972984
0.24752501
0.48867287
0.6682651
0.8337072
1.0186281
1.1710221
1.2807364
1.359815
1.4163877
1.4546209
1.4750647
1.4815829
1.4812141
1.4749598
1.465315
1.4545402
1.4439613
1.4346531
1.4282042
1.4260075
1.4270838
1.4331007
1.4447958
1.4622867
1.4847737
1.5105267
1.5371825
1.5622128
1.5833995
1.5990713
1.6075693
1.6092972
1.6034508
1.5895624
1.5674387
1.5369008
1.497676
1.4493285
1.3914656
1.3241465
1.2476189
1.162431
1.0695758
0.97060433
0.86719138
0.75993929
0.64914292
0.5355624
0.42122991
0.31035087
0.20982629
0.1279035
0.069731437
0.033776557
0.014176759
0.004845122
0.0011790866
0.00015162201
1.9900539e-05
3.1203482e-05
3.1251904e-05
3.1285431e-05
3.1342846e-05
3.1419478e-05
3.151187e-05
3.1624381e-05
3.1771071e-05
3.1904628e-05
3.2103527e-05
3.4133963e-05
6.1392364e-05
0.00035906685
0.0028521559
0.01840313
0.085586827
0.26460871
0.50827285
0.68656536
0.85611141
1.0432463
1.1949126
1.3034798
1.381487
1.4370112
1.4745146
1.494112
1.5001327
1.4993528
1.49206
1.4810159
1.4686207
1.4569808
1.4481173
1.4434455
1.4431782
1.4486096
1.4601876
1.477354
1.4989589
1.5235145
1.5493934
1.5749252
1.5985014
1.6186476
1.6338088
1.6419069
1.6429624
1.6360997
1.6209047
1.5972261
1.5646519
1.5223266
1.4696998
1.4066783
1.3337415
1.2520313
1.163323
1.0695806
0.97188935
0.87039302
0.76500141
0.65580842
0.54337692
0.42944891
0.31802873
0.21609946
0.13231277
0.07237179
0.035123949
0.01475673
0.0050455871
0.0012283921
0.00015924012
3.0061136e-05
3.1225717e-05
3.1284994e-05
3.1318839e-05
3.1386059e-05
3.1472267e-05
3.1575265e-05
3.17028e-05
3.1865604e-05
3.2013417e-05
3.2256403e-05
3.4722975e-05
6.8412677e-05
0.00042687117
0.003341462
0.02084764
0.094259627
0.28163697
0.52631503
0.70663802
0.88242667
1.0721982
1.2238409
1.3322741
1.4100715
1.4648805
1.5003752
1.516788
1.5211338
1.5188484
1.5111933
1.5012306
1.4913305
1.4829146
1.4768196
1.4748344
1.4770884
1.4843967
1.4971497
1.5157651
1.5400531
1.5688714
1.6001136
1.6311528
1.6594888
1.6832076
1.7010392
1.7120787
1.7156707
1.7108262
1.6961766
1.670213
1.6318219
1.5807615
1.51737
1.4427954
1.3594214
1.2699507
1.1767916
1.080756
0.98194254
0.88020434
0.77523435
0.66670928
0.55472047
0.4406006
0.32810546
0.22425301
0.13805507
0.075817811
0.036881172
0.015511775
0.0053062772
0.0012926671
0.00016991067
4.8737016e-05
3.1271026e-05
3.1323427e-05
3.1364298e-05
3.1430239e-05
3.15189e-05
3.1624788e-05
3.1753401e-05
3.1917422e-05
3.2072477e-05
3.234136e-05
3.5245141e-05
7.3017752e-05
0.00047022708
0.0036643188
0.022700636
0.10080903
0.29559395
0.5420363
0.72245816
0.9021226
1.0937833
1.2454281
1.3536335
1.4310578
1.4852394
1.5206806
1.5380953
1.5433292
1.5417163
1.5341108
1.5234169
1.5118701
1.5014716
1.4953241
1.4945181
1.4991051
1.510028
1.5281285
1.5523901
1.5810545
1.6119864
1.6432282
1.6733008
1.7011101
1.7249989
1.742788
1.75287
1.7542008
1.7451679
1.7244513
1.6913649
1.6453836
1.586729
1.516723
1.4377163
1.3523449
1.2628668
1.170293
1.075006
0.97714819
0.87654832
0.7727827
0.66539295
0.55434943
0.44091856
0.32883102
0.22511749
0.13882553
0.076346922
0.037167409
0.015636882
0.0053496411
0.0013038942
0.00017397647
6.817976e-05
3.1297364e-05
3.1363157e-05
3.1401502e-05
3.147959e-05
3.1577884e-05
3.1694854e-05
3.1838119e-05
3.2020373e-05
3.2191609e-05
3.2499272e-05
3.5705108e-05
7.8428329e-05
0.00052246163
0.0040429123
0.024589524
0.1077333
0.30928342
0.55653712
0.74020101
0.92616179
1.120808
1.2737672
1.38316
1.4614138
1.5159362
1.5499833
1.5644232
1.5676346
1.5642011
1.5561503
1.5466778
1.5383934
1.5331579
1.5317707
1.5342931
1.5423267
1.5566659
1.5771239
1.6034354
1.6347711
1.6697797
1.7065901
1.7429218
1.7761889
1.8041528
1.8251539
1.836926
1.8375276
1.8247059
1.7966087
1.7519511
1.6916202
1.6184562
1.5359661
1.4479443
1.3571622
1.2644677
1.1700393
1.0739187
0.97589906
0.87553752
0.77220862
0.66531258
0.55472954
0.44164395
0.32975818
0.22609734
0.13968696
0.076949707
0.037501889
0.015786511
0.0054024676
0.0013177502
0.00017900757
9.2168636e-05
3.1347666e-05
3.1407551e-05
3.145349e-05
3.1529238e-05
3.1629639e-05
3.1749983e-05
3.1896329e-05
3.207913e-05
3.2255438e-05
3.2582256e-05
3.6101489e-05
8.1408239e-05
0.00055066534
0.004259052
0.025942187
0.11265074
0.31968927
0.56838582
0.75334693
0.94295615
1.1395054
1.293257
1.4032837
1.4819314
1.5364005
1.5709122
1.5885149
1.5945029
1.5934037
1.5867878
1.5776165
1.5679343
1.5602791
1.5571353
1.5606024
1.5713384
1.5890075
1.6134279
1.6439693
1.6792475
1.7173616
1.7561719
1.7934539
1.8265586
1.8531101
1.8707615
1.8767766
1.8687315
1.8446943
1.8040854
1.7479149
1.6784322
1.5987206
1.5125751
1.4227462
1.3307444
1.2372102
1.1425209
1.0467423
0.94961174
0.85058281
0.74891523
0.64390286
0.5353709
0.4246058
0.3155335
0.21525512
0.13240546
0.072704969
0.035356905
0.014862624
0.0050820924
0.0012399911
0.00017235359
0.00011576438
3.1381101e-05
3.1451481e-05
3.1495489e-05
3.1582577e-05
3.169318e-05
3.1824653e-05
3.198613e-05
3.2187405e-05
3.2383423e-05
3.2729526e-05
3.6303492e-05
8.367675e-05
0.0005753795
0.0044580288
0.026990636
0.1171656
0.32940864
0.57920328
0.76832105
0.96409058
1.1642522
1.3209575
1.4337251
1.5144391
1.5703881
1.6051018
1.619558
1.6225647
1.6192418
1.6119778
1.6041053
1.598986
1.5982126
1.6033051
1.6140521
1.6311489
1.6544533
1.6841137
1.7196219
1.7597599
1.8022455
1.8439073
1.8819529
1.9156265
1.9433424
1.9609043
1.9643864
1.9498798
1.9156265
1.8617131
1.792974
1.7136462
1.6276569
1.5383681
1.447862
1.3565302
1.2641472
1.1704616
1.0752189
0.97798562
0.87815289
0.77505671
0.66815056
0.55737134
0.44397603
0.33174879
0.22774698
0.14094551
0.077771182
0.037950104
0.015989638
0.0054756173
0.0013365739
0.00018308065
0.00010412063
3.1435859e-05
3.1499595e-05
3.1551291e-05
3.1639306e-05
3.175217e-05
3.1887166e-05
3.2050151e-05
3.2253508e-05
3.2451202e-05
3.2809232e-05
3.6456334e-05
8.3700012e-05
0.00057549312
0.0044944514
0.027584323
0.11994125
0.33586563
0.58699247
0.77834732
0.9775964
1.1798908
1.3381079
1.4522566
1.5341323
1.5907564
1.6260858
1.64611
1.6549729
1.6565083
1.6532028
1.6478777
1.6430065
1.640849
1.643334
1.6520835
1.6691436
1.696744
1.7323931
1.7745327
1.8205065
1.8685329
1.9186306
1.9707735
2.0149576
2.0399422
2.042591
2.0196975
1.9760614
1.9157205
1.843372
1.7618074
1.6739527
1.5825537
1.4888504
1.3936113
1.2973572
1.2002234
1.1020647
1.0025713
0.90132047
0.79783104
0.69170805
0.58303509
0.47312163
0.36463149
0.2625827
0.17377134
0.10434317
0.056449925
0.027249525
0.011417386
0.0039025997
0.00095783098
0.00015284764
0.00023315684
3.1470056e-05
3.1547466e-05
3.1600504e-05
3.1698797e-05
3.1821376e-05
3.1967674e-05
3.2144614e-05
3.2367285e-05
3.2588934e-05
3.298927e-05
3.6877875e-05
8.8495179e-05
0.0006319122
0.0050077484
0.031056097
0.13580418
0.36317874
0.61626134
0.81074138
1.0170296
1.2211486
1.3775646
1.4908354
1.5765711
1.6336694
1.6669125
1.6822574
1.6866372
1.6849761
1.6798521
1.6747756
1.6733254
1.6781863
1.6901557
1.7108299
1.7416708
1.7829357
1.8329222
1.888047
1.9443858
1.9977466
2.0429652
2.0726761
2.0821972
2.0685193
2.0334162
1.9802153
1.9113889
1.8300341
1.7395414
1.6426578
1.5426718
1.4417316
1.3406551
1.2400326
1.1404185
1.041937
0.94423607
0.84667559
0.7484749
0.64890724
0.54768764
0.44564543
0.34532962
0.25134347
0.16901018