/*--------------------------------*- C++ -*----------------------------------*\
| =========                 |                                                 |
| \\      /  F ield         | OpenFOAM: The Open Source CFD Toolbox           |
|  \\    /   O peration     | Version:  2212                                  |
|   \\  /    A nd           | Website:  www.openfoam.com                      |
|    \\/     M anipulation  |                                                 |
\*---------------------------------------------------------------------------*/
FoamFile
{
    version     2.0;
    format      ascii;
    arch        "LSB;label=32;scalar=64";
    class       volScalarField;
    location    "0.5";
    object      nut;
}
// * * * * * * * * * * * * * * * * * * * * * * * * * * * * * * * * * * * * * //

dimensions      [0 2 -1 0 0 0 0];

internalField   nonuniform List<scalar> 
15300
(
3.5710147e-07
3.5884807e-07
3.619277e-07
3.6530401e-07
3.6841078e-07
3.7155562e-07
3.7575016e-07
3.8424741e-07
3.945256e-07
3.9051833e-07
3.7745909e-07
3.7020984e-07
3.7737406e-07
4.7681707e-07
4.7547409e-07
1.6308599e-06
2.0472298e-05
0.00016149889
0.00065640233
0.0022204589
0.0019784427
0.0014588024
0.0015090342
0.0015915716
0.0016550369
0.0017117982
0.0017511877
0.0017568114
0.0017434811
0.0017286774
0.0017247102
0.0017254129
0.001707993
0.0016679502
0.001621499
0.0015694293
0.0014951356
0.0014148224
0.0013306092
0.0012445257
0.0011583991
0.001074056
0.00099151772
0.00091195571
0.00083606347
0.00076402354
0.00069625958
0.0006326256
0.00057272201
0.00051656938
0.00046420695
0.00041572181
0.00037033
0.00032812367
0.0002883535
0.00025138262
0.00021719219
0.00018481661
0.00015213751
0.00012268092
9.7589802e-05
7.9357723e-05
6.4766327e-05
5.0759384e-05
3.8096226e-05
2.7180412e-05
1.8343673e-05
1.1369953e-05
6.004321e-06
2.4793822e-06
7.166034e-07
1.3286928e-07
1.4341942e-08
7.8021829e-10
2.4198586e-10
3.6660427e-07
3.6984235e-07
3.7266267e-07
3.7522352e-07
3.7697093e-07
3.7733688e-07
3.7552969e-07
3.6965599e-07
3.6154792e-07
3.6380972e-07
3.7216215e-07
3.7342563e-07
3.8259166e-07
4.9033222e-07
4.8308581e-07
1.6284116e-06
2.0500939e-05
0.00016898422
0.0007422626
0.0020630957
0.0019156089
0.0015267797
0.0015265878
0.0016091182
0.0016791155
0.0017338458
0.0017670863
0.0017729203
0.0017629153
0.0017514224
0.0017432932
0.0017319965
0.0017104384
0.0016811407
0.001645033
0.0015827735
0.0014987295
0.0014104537
0.0013206698
0.0012305336
0.0011413575
0.0010543405
0.00097028854
0.0008897913
0.00081324365
0.00074081244
0.00067248758
0.00060852645
0.00054881584
0.00049334306
0.00044155158
0.00039353808
0.00034932595
0.00030867096
0.00027155883
0.00023761353
0.00020641987
0.00017711942
0.0001499647
0.00012568731
0.00010402141
8.4337098e-05
6.6797086e-05
5.155132e-05
3.8420396e-05
2.7361331e-05
1.837248e-05
1.1289477e-05
5.9387675e-06
2.4528209e-06
7.0538399e-07
1.3119473e-07
1.4193401e-08
7.6691411e-10
2.4008655e-10
3.832176e-07
3.8346357e-07
3.8548421e-07
3.871594e-07
3.8839458e-07
3.8968488e-07
3.935732e-07
4.0536913e-07
4.1938546e-07
4.0999572e-07
3.8982063e-07
3.8054251e-07
3.9005538e-07
5.1143576e-07
5.1161203e-07
2.2721176e-06
2.6018706e-05
0.00019048058
0.0008270011
0.0019880215
0.0018723674
0.0015707313
0.0015543928
0.0016305821
0.0017033825
0.0017571292
0.0017870499
0.0017930593
0.0017852177
0.0017737649
0.0017613911
0.001745532
0.0017261877
0.001704302
0.0016679528
0.0015868357
0.0014943945
0.0014002205
0.0013057012
0.0012120173
0.0011204153
0.0010319249
0.00094719407
0.00086653513
0.00079011715
0.00071798787
0.00065019491
0.0005867731
0.00052770406
0.00047298157
0.00042255539
0.00037628247
0.00033392873
0.00029515184
0.00025971433
0.0002274321
0.00019785178
0.00017003239
0.00014466078
0.00012178281
0.00010111206
8.2417967e-05
6.5556525e-05
5.0531931e-05
3.750833e-05
2.6603961e-05
1.7798175e-05
1.0886675e-05
5.7071095e-06
2.3471213e-06
6.7229115e-07
1.2487587e-07
1.3513249e-08
7.3323712e-10
2.3228977e-10
4.1193692e-07
4.1102646e-07
4.1002875e-07
4.0953084e-07
4.0842794e-07
4.0600578e-07
4.0227848e-07
3.9627878e-07
3.8807702e-07
3.8807723e-07
3.9407648e-07
3.948341e-07
4.0805048e-07
5.576269e-07
5.3463727e-07
2.50618e-06
2.7928404e-05
0.00020951132
0.00088707775
0.0019320711
0.0018325332
0.00159773
0.0015795071
0.00165035
0.0017234474
0.0017758549
0.0018032821
0.0018089202
0.0018017751
0.0017894559
0.0017745268
0.0017573115
0.0017390449
0.0017161612
0.0016703375
0.0015827556
0.0014864243
0.001388826
0.0012916819
0.0011961476
0.0011033049
0.0010137934
0.00092812817
0.00084674107
0.00076988558
0.00069775745
0.00063042106
0.00056785898
0.00051004944
0.00045678112
0.00040781077
0.00036287828
0.00032176997
0.0002843274
0.0002503014
0.00021915628
0.00018995638
0.00016313926
0.00013881125
0.00011673208
9.667377e-05
7.8516802e-05
6.2233044e-05
4.7858558e-05
3.54548e-05
2.5081755e-05
1.6730064e-05
1.0182777e-05
5.2994455e-06
2.15586e-06
6.112324e-07
1.1313442e-07
1.2245486e-08
6.6821814e-10
2.1503731e-10
4.4411809e-07
4.4059311e-07
4.3582188e-07
4.3218558e-07
4.2901815e-07
4.2694891e-07
4.2988327e-07
4.4408215e-07
4.6431244e-07
4.6097691e-07
4.339171e-07
4.1533853e-07
4.2936917e-07
5.9022812e-07
6.1156233e-07
3.8221668e-06
3.6203257e-05
0.00023870922
0.00095364984
0.0018966066
0.0018104181
0.0016214257
0.001606589
0.0016729729
0.0017446558
0.0017957377
0.0018217455
0.0018270574
0.0018197385
0.0018062685
0.0017899559
0.0017726468
0.0017544829
0.0017277857
0.0016714808
0.0015781536
0.0014776802
0.0013766134
0.0012768265
0.0011793941
0.0010851681
0.00099477922
0.00090871559
0.00082736172
0.00075099237
0.00067972733
0.00061348314
0.0005521147
0.0004954192
0.00044321409
0.00039531658
0.00035156429
0.00031178416
0.00027561594
0.00024233123
0.00021118219
0.00018282551
0.0001571604
0.00013385477
0.00011262991
9.3310599e-05
7.5806682e-05
6.0099137e-05
4.6224704e-05
3.4255769e-05
2.4246888e-05
1.6174039e-05
9.8084995e-06
5.0674844e-06
2.037747e-06
5.715948e-07
1.054133e-07
1.1407072e-08
6.2025546e-10
1.9752648e-10
4.7377429e-07
4.7073147e-07
4.6394037e-07
4.5908833e-07
4.5461235e-07
4.4959459e-07
4.4437018e-07
4.371049e-07
4.2792981e-07
4.2929539e-07
4.3879265e-07
4.393165e-07
4.6485333e-07
5.4960599e-07
6.8241712e-07
4.2954272e-06
4.0288523e-05
0.00026502924
0.0010037927
0.0018602859
0.0017846052
0.0016343909
0.0016280609
0.001692689
0.0017626578
0.0018119492
0.0018362139
0.001840493
0.0018325007
0.0018183703
0.0018015334
0.00178318
0.0017614807
0.0017280631
0.0016663814
0.0015696612
0.0014665445
0.0013633409
0.0012616656
0.0011628068
0.0010677279
0.00097702794
0.00089110966
0.00081022668
0.00073448405
0.00066385394
0.00059824973
0.00053757777
0.00048174243
0.00043063209
0.00038410081
0.00034192257
0.00030347398
0.00026754119
0.00023449101
0.00020453187
0.00017741231
0.00015278241
0.00013034184
0.00010984843
9.1140547e-05
7.4137925e-05
5.8832682e-05
4.5275365e-05
3.355611e-05
2.3742346e-05
1.5817252e-05
9.5382491e-06
4.8877143e-06
1.9424983e-06
5.3936356e-07
9.9147995e-08
1.0725761e-08
5.7947887e-10
1.8108001e-10
5.0288992e-07
5.0070086e-07
4.9238494e-07
4.862453e-07
4.8172903e-07
4.7986574e-07
4.8307524e-07
4.9971377e-07
5.2232106e-07
5.2404871e-07
5.0618317e-07
4.8713348e-07
5.1241254e-07
5.2209931e-07
8.6969466e-07
6.5356689e-06
5.1855814e-05
0.00030019476
0.0010635441
0.0018431462
0.0017711944
0.0016491843
0.0016508406
0.001713966
0.0017815679
0.0018289964
0.0018519722
0.0018555225
0.0018470126
0.0018323166
0.00181454
0.0017938729
0.0017674974
0.0017279725
0.0016636236
0.0015635602
0.0014575306
0.0013519178
0.0012485784
0.0011486069
0.0010529095
0.00096201946
0.00087623418
0.00079568055
0.00072036085
0.00065023043
0.00058532045
0.00052560726
0.00047099305
0.0004213498
0.00037622962
0.00033462285
0.00029552225
0.00026000956
0.00022812391
0.00019943542
0.00017347093
0.00014982198
0.00012816126
0.00010826935
9.0008717e-05
7.3325327e-05
5.8239653e-05
4.483213e-05
3.3217837e-05
2.3482223e-05
1.5617255e-05
9.3606634e-06
4.759138e-06
1.8712013e-06
5.1499357e-07
9.4418072e-08
1.021064e-08
5.4722246e-10
1.6688549e-10
5.2992738e-07
5.2928725e-07
5.2057677e-07
5.1403641e-07
5.0889089e-07
5.0531555e-07
5.0191458e-07
4.9509009e-07
4.8403337e-07
4.8635976e-07
5.0214922e-07
5.0642415e-07
5.3873692e-07
4.961962e-07
1.0155074e-06
7.2965241e-06
5.7967422e-05
0.00033171742
0.0011089667
0.0018150166
0.0017514993
0.0016562732
0.0016680741
0.0017318026
0.0017976676
0.0018430704
0.0018642677
0.0018665578
0.0018572515
0.0018419118
0.0018229744
0.0017994011
0.0017672933
0.0017209464
0.0016531695
0.001552791
0.0014450056
0.0013378313
0.0012334842
0.0011328845
0.0010368137
0.00094574952
0.00085995286
0.00077956168
0.00070467496
0.00063539563
0.00057172682
0.00051358156
0.00046066819
0.00041223953
0.00036669496
0.00032489272
0.00028725951
0.00025352794
0.00022322909
0.00019584478
0.00017090181
0.00014800538
0.00012686593
0.00010732334
8.9298788e-05
7.2774168e-05
5.7796213e-05
4.4464311e-05
3.2910292e-05
2.3229622e-05
1.5414393e-05
9.1725018e-06
4.6227113e-06
1.7966783e-06
4.9003186e-07
8.9615813e-08
9.6882812e-09
5.1481356e-10
1.5286359e-10
5.6034029e-07
5.6103227e-07
5.5160841e-07
5.4448424e-07
5.396379e-07
5.3932614e-07
5.3978212e-07
5.2588685e-07
5.1146806e-07
5.0946841e-07
5.084745e-07
5.0373681e-07
4.9018835e-07
4.9510798e-07
1.3911995e-06
1.0862152e-05
7.3092349e-05
0.00037154975
0.0011629417
0.0018020508
0.0017421532
0.0016673004
0.0016872803
0.001750915
0.0018144261
0.001857675
0.0018774659
0.001878964
0.0018691054
0.0018529852
0.0018323595
0.0018052237
0.0017671902
0.001714245
0.0016415509
0.0015453294
0.0014363853
0.0013275772
0.0012219364
0.0011205185
0.0010239677
0.00093272022
0.00084702994
0.00076707327
0.00069297559
0.00062474114
0.00056227639
0.00050514807
0.00045246361
0.00040269885
0.00035752066
0.00031715007
0.00028112472
0.00024882016
0.00021968935
0.00019320502
0.00016894044
0.00014657225
0.00012586944
0.00010666458
8.8864081e-05
7.2462467e-05
5.7542897e-05
4.4238488e-05
3.2705354e-05
2.3049394e-05
1.5260616e-05
9.0146651e-06
4.5046101e-06
1.7316648e-06
4.6842527e-07
8.5480013e-08
9.2382514e-09
4.8637313e-10
1.4014397e-10
5.7819166e-07
5.6677564e-07
5.594436e-07
5.4948948e-07
5.3913822e-07
5.2845511e-07
5.1818404e-07
5.101084e-07
5.0354264e-07
4.9182719e-07
4.8091913e-07
4.732554e-07
4.6469934e-07
4.9426081e-07
1.6503015e-06
1.1936679e-05
8.1062337e-05
0.00040651149
0.0012035796
0.0017777465
0.0017257994
0.0016716001
0.001701108
0.0017662963
0.0018284005
0.0018696402
0.0018876291
0.0018877923
0.0018769512
0.0018596936
0.0018369952
0.0018059105
0.0017619428
0.0017018926
0.0016239611
0.00153125
0.001422624
0.0013131602
0.0012067135
0.0011046483
0.0010076897
0.00091637635
0.00083104111
0.00075186703
0.00067890336
0.00061209012
0.00055074316
0.0004928478
0.00043942072
0.00039119081
0.00034811765
0.00030973763
0.00027544964
0.0002446202
0.00021669707
0.00019116871
0.00016762864
0.00014576555
0.00012535251
0.00010627284
8.8511137e-05
7.2126762e-05
5.7219147e-05
4.3932023e-05
3.2426294e-05
2.2803674e-05
1.5032639e-05
8.8189479e-06
4.3649325e-06
1.6577696e-06
4.4457576e-07
8.0958254e-08
8.7470387e-09
4.5610928e-10
1.2722492e-10
5.5168069e-07
5.3946166e-07
5.3261516e-07
5.2234643e-07
5.1185201e-07
5.0054052e-07
4.8790847e-07
4.7289897e-07
4.5614568e-07
4.5184263e-07
4.4978667e-07
4.3835143e-07
4.2947183e-07
5.3564724e-07
2.3211372e-06
1.719098e-05
9.9975324e-05
0.00045020305
0.0012515175
0.0017665479
0.0017188359
0.0016807581
0.0017175075
0.0017829525
0.0018427623
0.0018816995
0.0018981968
0.0018975299
0.0018859605
0.0018674623
0.0018422723
0.0018065653
0.001757192
0.0016914792
0.0016099035
0.0015156794
0.0014131967
0.0013023967
0.0011951803
0.0010928142
0.00099572809
0.00090461091
0.00081989774
0.00074163768
0.00066963663
0.00060299073
0.0005398428
0.00048201323
0.00042994044
0.00038338044
0.00034188601
0.00030491069
0.00027180924
0.00024195591
0.0002147815
0.00018979174
0.00016661073
0.00014497761
0.00012474206
0.00010582557
8.8174862e-05
7.1840677e-05
5.695117e-05
4.3676802e-05
3.2190003e-05
2.2589625e-05
1.4817819e-05
8.6381217e-06
4.2351152e-06
1.5895555e-06
4.2285784e-07
7.6863284e-08
8.3021292e-09
4.2845509e-10
1.1522637e-10
5.3007374e-07
5.1899968e-07
5.1215247e-07
5.0166342e-07
4.9085683e-07
4.7999656e-07
4.6890325e-07
4.5862919e-07
4.4998463e-07
4.4076748e-07
4.2624846e-07
4.1711855e-07
4.1077045e-07
5.6985414e-07
2.7350908e-06
1.8595919e-05
0.00010963539
0.00048725892
0.0012868524
0.0017444448
0.0017045328
0.0016833618
0.0017284489
0.0017955891
0.0018542428
0.0018913215
0.0019060631
0.0019039487
0.0018911295
0.001870969
0.0018424074
0.0018018877
0.0017477093
0.0016774676
0.0015916637
0.0014934692
0.0013884386
0.0012824513
0.0011783648
0.0010761462
0.00097978682
0.00088972529
0.00080591291
0.00072733633
0.0006537869
0.00058580306
0.00052378605
0.00046798786
0.00041819986
0.00037393914
0.00033458107
0.00029943759
0.00026781183
0.00023913583
0.00021285113
0.00018851759
0.00016580806
0.00014448876
0.00012440001
0.00010548564
8.7807256e-05
7.1458007e-05
5.6569997e-05
4.3316494e-05
3.1866966e-05
2.2308955e-05
1.4549746e-05
8.4209244e-06
4.0844502e-06
1.51311e-06
3.9914776e-07
7.2427547e-08
7.8207773e-09
3.9918434e-10
1.0304926e-10
5.1000453e-07
4.9847753e-07
4.9191303e-07
4.8121922e-07
4.6936502e-07
4.5715197e-07
4.4415255e-07
4.2900043e-07
4.1246817e-07
4.0147965e-07
3.9927247e-07
3.8784972e-07
3.8799307e-07
6.7074414e-07
3.8213113e-06
2.5838189e-05
0.00013249302
0.00053429971
0.0013284206
0.001734238
0.0016993606
0.0016915351
0.0017426075
0.0018097785
0.0018660474
0.0019006663
0.0019137736
0.0019107345
0.0018969736
0.0018749057
0.001842669
0.0017980586
0.001739303
0.0016648056
0.0015762587
0.0014772383
0.0013722448
0.0012660146
0.0011617589
0.0010615046
0.00096625239
0.00087632735
0.00079190514
0.00071325502
0.00064049577
0.00057386131
0.00051347061
0.00045927281
0.00041100602
0.00036817019
0.00033009647
0.00029604621
0.00026529709
0.00023728659
0.0002114721
0.00018744543
0.00016491788
0.00014371186
0.00012376011
0.00010498341
8.7387936e-05
7.1078558e-05
5.6214251e-05
4.2988208e-05
3.1575251e-05
2.2055187e-05
1.4299438e-05
8.2158119e-06
3.9417342e-06
1.4415064e-06
3.7727855e-07
6.8357491e-08
7.3790597e-09
3.7218297e-10
9.1704324e-11
4.9509538e-07
4.8414521e-07
4.7746439e-07
4.66476e-07
4.5404466e-07
4.4103902e-07
4.2841418e-07
4.1686253e-07
4.0678863e-07
3.958155e-07
3.8111118e-07
3.7220128e-07
3.8085566e-07
7.5519504e-07
4.4347868e-06
2.7597552e-05
0.00014368896
0.00057239128
0.0013581575
0.0017138789
0.0016866841
0.0016930357
0.0017510742
0.0018196314
0.0018748284
0.0019077436
0.0019191732
0.0019145401
0.001899062
0.0018745924
0.0018382491
0.0017891964
0.0017256681
0.0016469891
0.0015552103
0.0014542015
0.0013484906
0.0012422176
0.0011383211
0.0010385276
0.00094371232
0.00085430498
0.00077063822
0.00069297363
0.00062156682
0.00055672059
0.00049852571
0.00044677512
0.0004009496
0.00036034763
0.00032418366
0.00029166791
0.00026214039
0.00023504702
0.00020990633
0.00018636711
0.00016418129
0.00014317671
0.00012326884
0.00010447201
8.6869181e-05
7.056995e-05
5.5731586e-05
4.254963e-05
3.119497e-05
2.1734016e-05
1.3993232e-05
7.9723572e-06
3.777559e-06
1.3619784e-06
3.5359611e-07
6.3979481e-08
6.9044286e-09
3.4384096e-10
8.0346464e-11
4.821967e-07
4.7045276e-07
4.6358861e-07
4.5217745e-07
4.3890977e-07
4.2451613e-07
4.0944924e-07
3.9367185e-07
3.7713089e-07
3.6371454e-07
3.5822451e-07
3.4922156e-07
3.718574e-07
9.4754116e-07
6.0770416e-06
3.7114673e-05
0.00017071037
0.00062263531
0.001393602
0.0017048049
0.0016833925
0.001700926
0.001763561
0.0018315937
0.0018841352
0.0019143474
0.0019238904
0.0019180865
0.0019014046
0.0018740347
0.001833816
0.0017811765
0.0017138316
0.0016319614
0.0015380819
0.0014362466
0.0013307164
0.0012248448
0.0011212471
0.0010216741
0.00092714945
0.00083831987
0.00075559228
0.00067910888
0.00060924654
0.00054616406
0.00048974491
0.00043962885
0.00039526117
0.00035591054
0.00032076249
0.00028901231
0.00026010407
0.0002334376
0.00020857483
0.00018520507
0.00016312488
0.00014223222
0.00012247075
0.00010379519
8.6269731e-05
7.0025422e-05
5.5237688e-05
4.2113819e-05
3.0824724e-05
2.1425214e-05
1.3694185e-05
7.7342879e-06
3.6179679e-06
1.2861238e-06
3.3140613e-07
5.9897044e-08
6.4618379e-09
3.1744874e-10
6.9804131e-11
4.7379168e-07
4.6197503e-07
4.545481e-07
4.4238062e-07
4.283698e-07
4.1337874e-07
3.9817652e-07
3.8406481e-07
3.720402e-07
3.6035993e-07
3.4711499e-07
3.3754927e-07
3.7913204e-07
1.0981873e-06
6.9492088e-06
3.926017e-05
0.0001833953
0.00066119202
0.0014181336
0.0016862915
0.0016723089
0.0017017687
0.0017699384
0.0018387957
0.0018902102
0.0019188248
0.0019267396
0.0019192571
0.0019003562
0.0018693764
0.0018252698
0.0017682555
0.001696405
0.0016107059
0.0015141634
0.0014107335
0.0013043229
0.0011983016
0.0010950914
0.00099623218
0.00090265259
0.00081503429
0.00073358332
0.00065869067
0.00059075553
0.00052991516
0.00047597743
0.00042839005
0.00038636976
0.00034904428
0.00031554415
0.00028510277
0.0002571953
0.00023127998
0.00020697357
0.00018401205
0.00016221772
0.00014147202
0.00012173328
0.00010307539
8.5583097e-05
6.9382761e-05
5.4650017e-05
4.1596202e-05
3.0387961e-05
2.1063648e-05
1.3344516e-05
7.4604881e-06
3.4388786e-06
1.2037783e-06
3.0786822e-07
5.5589805e-08
5.9952454e-09
2.9019768e-10
5.9400138e-11
4.6675137e-07
4.5378443e-07
4.4566997e-07
4.3261027e-07
4.175854e-07
4.0141803e-07
3.8447079e-07
3.6677483e-07
3.4929134e-07
3.3518201e-07
3.247048e-07
3.189972e-07
3.9112466e-07
1.4231393e-06
9.2775026e-06
5.134119e-05
0.0002149544
0.00071485161
0.0014480761
0.0016786446
0.0016711964
0.0017100229
0.0017813523
0.0018489417
0.0018972504
0.0019227494
0.0019284139
0.0019193314
0.0018985735
0.0018638559
0.0018163598
0.0017558161
0.0016809427
0.0015930838
0.0014952852
0.0013913956
0.0012851923
0.0011797479
0.0010771495
0.00097877345
0.00088577248
0.00079891323
0.0007185652
0.0006452877
0.00057929822
0.00052047474
0.00046837865
0.00042236838
0.00038165138
0.00034534898
0.00031258359
0.00028274461
0.00025523526
0.00022957418
0.00020542352
0.00018255605
0.00016083884
0.00014023146
0.00012064382
0.0001021043
8.47063e-05
6.8595306e-05
5.3959383e-05
4.1009877e-05
2.9899476e-05
2.0629416e-05
1.2970829e-05
7.1747562e-06
3.2563373e-06
1.1224312e-06
2.8509398e-07
5.144014e-08
5.5458481e-09
2.6428458e-10
4.9795425e-11
4.6277873e-07
4.4933816e-07
4.4026813e-07
4.2606765e-07
4.1001715e-07
3.9320076e-07
3.7616755e-07
3.5993906e-07
3.4576555e-07
3.3287256e-07
3.1856106e-07
3.128524e-07
4.1440495e-07
1.6785998e-06
1.0518278e-05
5.4002914e-05
0.00022922727
0.0007534836
0.0014678564
0.0016619935
0.0016616962
0.0017105182
0.0017859644
0.0018536672
0.0019006711
0.0019246628
0.0019287146
0.0019177476
0.0018938181
0.0018550605
0.0018039676
0.0017390274
0.001659722
0.0015680659
0.0014676593
0.0013624092
0.0012557443
0.0011503118
0.0010480464
0.00095050633
0.00085913992
0.00077404168
0.00069576411
0.00062476185
0.00056120761
0.00050493817
0.00045545072
0.00041191931
0.00037338308
0.00033887847
0.00030751317
0.00027881181
0.0002521602
0.00022714309
0.00020348147
0.00018098885
0.00015954023
0.00013904484
0.00011954813
0.00010110058
8.3795944e-05
6.7777829e-05
5.3241943e-05
4.0397552e-05
2.9379283e-05
2.0133624e-05
1.2555992e-05
6.8581037e-06
3.0573829e-06
1.0364643e-06
2.6151091e-07
4.7159921e-08
5.0825311e-09
2.3803708e-10
4.0475183e-11
4.5871356e-07
4.440008e-07
4.3401491e-07
4.1866173e-07
4.0150009e-07
3.8361376e-07
3.6529148e-07
3.4659557e-07
3.2810586e-07
3.1254474e-07
3.0077018e-07
2.9789832e-07
4.5732806e-07
2.1955487e-06
1.374184e-05
6.9049522e-05
0.00026607451
0.00081110232
0.0014927382
0.0016558344
0.0016630746
0.0017197654
0.0017969412
0.0018625292
0.0019058443
0.0019260836
0.0019273477
0.0019144019
0.0018870388
0.00184451
0.0017901239
0.001721788
0.0016401274
0.0015474201
0.0014467556
0.0013415983
0.0012352118
0.0011302332
0.0010286698
0.00093223928
0.00084169942
0.00075763168
0.00068086049
0.00061180657
0.00055045233
0.00049634434
0.00044870677
0.0004066454
0.00036920516
0.00033543329
0.00030465149
0.0002763222
0.0002499128
0.00022506025
0.00020151832
0.00017912688
0.00015780039
0.0001374606
0.00011809885
9.9772041e-05
8.2586227e-05
6.6697544e-05
5.2308652e-05
3.9620132e-05
2.8741689e-05
1.955374e-05
1.2087599e-05
6.5120329e-06
2.8482727e-06
9.4980654e-07
2.3824735e-07
4.2951464e-08
4.6272606e-09
2.1288327e-10
3.2110383e-11
4.5579618e-07
4.4064373e-07
4.2962546e-07
4.1308941e-07
3.9494483e-07
3.7646649e-07
3.5815267e-07
3.4080749e-07
3.2528372e-07
3.1084126e-07
2.9615294e-07
2.9791828e-07
5.0680426e-07
2.6023735e-06
1.5495106e-05
7.2517739e-05
0.00028226845
0.00084948086
0.0015081254
0.0016410462
0.0016551936
0.0017201604
0.0018000764
0.001864988
0.001906698
0.0019255419
0.0019254143
0.0019100216
0.0018782099
0.0018320865
0.0017738243
0.0017013514
0.0016153393
0.0015184538
0.001414736
0.0013080144
0.0012012672
0.0010966978
0.00099614783
0.00090146686
0.00081269968
0.00073102692
0.00065711674
0.00059105068
0.0005325963
0.00048122974
0.00043616893
0.00039641248
0.00036091828
0.00032869093
0.00029927147
0.00027199045
0.00024637536
0.00022211852
0.0001990164
0.00017692933
0.00015578717
0.00013560592
0.00011641814
9.8276044e-05
8.1276454e-05
6.5569272e-05
5.1360623e-05
3.8844713e-05
2.8106803e-05
1.8946603e-05
1.1586353e-05
6.1378817e-06
2.6253748e-06
8.6027251e-07
2.1463008e-07
3.8689761e-08
4.1663265e-09
1.8781252e-10
2.4135661e-11
4.510239e-07
4.3492187e-07
4.2306358e-07
4.0560245e-07
3.8661156e-07
3.673953e-07
3.4821966e-07
3.291161e-07
3.103149e-07
2.9390904e-07
2.8167058e-07
2.9103071e-07
5.9314693e-07
3.3980748e-06
1.9842124e-05
9.0355599e-05
0.00032565767
0.00091192208
0.0015282497
0.0016364353
0.0016595096
0.0017311341
0.0018113608
0.0018732259
0.0019105852
0.001924931
0.0019209964
0.0019023581
0.0018662181
0.0018166771
0.001754674
0.0016786519
0.0015906655
0.0014939147
0.0013912767
0.0012855203
0.0011793646
0.0010752893
0.00097580392
0.00088175617
0.00079426375
0.00071427726
0.00064229403
0.00057842444
0.00052229666
0.00047313822
0.00042991687
0.00039154406
0.00035693533
0.00032530842
0.00029620665
0.00026905177
0.0002434908
0.00021929067
0.00019629016
0.00017439915
0.00015358625
0.00013368623
0.00011470595
9.6726671e-05
7.9874699e-05
6.4322846e-05
5.0286847e-05
3.7945784e-05
2.7336162e-05
1.8243691e-05
1.1021353e-05
5.730289e-06
2.3942195e-06
7.7176273e-07
1.9173685e-07
3.4566766e-08
3.7208118e-09
1.6445821e-10
1.7512965e-11
4.4565061e-07
4.2956354e-07
4.1695678e-07
3.9873591e-07
3.7917512e-07
3.5971235e-07
3.4077302e-07
3.2298244e-07
3.0693304e-07
2.9199483e-07
2.779259e-07
2.9587481e-07
6.8625363e-07
4.0419993e-06
2.2358567e-05
9.6449915e-05
0.00034435908
0.00094951841
0.0015395682
0.0016238728
0.0016535484
0.0017317251
0.0018132802
0.0018736148
0.0019089948
0.0019220322
0.0019171416
0.0018948102
0.0018540092
0.0018008392
0.0017345
0.0016546909
0.0015627077
0.0014612543
0.0013544513
0.0012462812
0.0011394822
0.0010364056
0.00093902245
0.00084733945
0.00076272673
0.00068601737
0.00061757225
0.00055725286
0.0005044378
0.00045817472
0.00041737003
0.00038093008
0.00034781467
0.00031762852
0.00028977672
0.00026372944
0.00023910129
0.00021561481
0.00019308094
0.00017140121
0.00015057914
0.00013074901
0.00011194996
9.4232329e-05
7.7690591e-05
6.2481388e-05
4.8789625e-05
3.674357e-05
2.6277874e-05
1.7373345e-05
1.0336024e-05
5.2464199e-06
2.1309808e-06
6.7517436e-07
1.6714781e-07
3.0142948e-08
3.243004e-09
1.4012222e-10
1.1293229e-11
4.3725325e-07
4.2081598e-07
4.0780578e-07
3.8917926e-07
3.6936942e-07
3.4969729e-07
3.3042025e-07
3.1153636e-07
2.9308167e-07
2.7672363e-07
2.6571635e-07
2.9844997e-07
8.3811949e-07
5.1616731e-06
2.7989432e-05
0.00011720092
0.00039592179
0.0010178345
0.0015551741
0.0016210306
0.0016614578
0.0017453132
0.0018257366
0.0018820101
0.0019122931
0.0019201037
0.0019101112
0.001881856
0.0018362967
0.0017798941
0.0017097593
0.0016261456
0.0015319634
0.0014313452
0.0013271866
0.0012213154
0.0011160421
0.001014588
0.0009174232
0.00082653198
0.0007433817
0.00066872154
0.00060267594
0.00054482737
0.0004943354
0.00045011413
0.00041098821
0.00037577387
0.00034359699
0.00031409875
0.00028653179
0.00026044168
0.00023556804
0.00021179864
0.00018922143
0.00016792603
0.00014772185
0.00012848416
0.00011017846
9.2842706e-05
7.6578712e-05
6.1566599e-05
4.8019155e-05
3.6055102e-05
2.5494401e-05
1.6653161e-05
9.7279798e-06
4.8084696e-06
1.8998681e-06
5.9359655e-07
1.4664929e-07
2.6457371e-08
2.8452746e-09
1.2055252e-10
6.9649006e-12
4.2726118e-07
4.1156814e-07
3.9829612e-07
3.7958511e-07
3.59902e-07
3.4050811e-07
3.2179421e-07
3.0429135e-07
2.8844761e-07
2.7384469e-07
2.6235507e-07
3.1149665e-07
1.0095111e-06
6.2680256e-06
3.1965132e-05
0.00012676219
0.00041825359
0.0010535652
0.0015627659
0.0016117192
0.001658177
0.0017464946
0.0018266223
0.0018803772
0.0019082801
0.0019148559
0.0019038178
0.0018708885
0.001821821
0.0017609388
0.0016857922
0.00159811
0.0015006342
0.0013954613
0.0012857599
0.001175834
0.0010696793
0.00096899465
0.0008745221
0.00078751226
0.00070875726
0.00063861936
0.0005769684
0.00052316781
0.00047620414
0.00043488114
0.00039796193
0.000364236
0.00033343389
0.00030492563
0.00027815123
0.00025281969
0.00022878509
0.00020595755
0.0001841683
0.00016322273
0.00014311515
0.00012389954
0.00010564347
8.8452376e-05
7.2479527e-05
5.7918263e-05
4.4916336e-05
3.3473493e-05
2.3329969e-05
1.4968146e-05
8.5102725e-06
4.0502973e-06
1.5453929e-06
4.7594291e-07
1.174177e-07
2.1193558e-08
2.2779397e-09
9.4483849e-11
3.0770945e-12
4.1397431e-07
3.9905545e-07
3.8614394e-07
3.6795222e-07
3.488059e-07
3.298379e-07
3.1133006e-07
2.9331237e-07
2.7576226e-07
2.6013263e-07
2.5262837e-07
3.2998767e-07
1.276639e-06
7.8951865e-06
3.9078894e-05
0.00015157394
0.00048000845
0.0011278594
0.0015739385
0.0016106392
0.0016698647
0.0017630566
0.0018405966
0.0018892921
0.001911434
0.0019118729
0.0018929436
0.0018523887
0.00179841
0.0017332534
0.0016545032
0.0015635583
0.0014634306
0.001358418
0.0012521108
0.001146854
0.0010450464
0.00094606417
0.00085253746
0.00076649277
0.00068927731
0.00062131962
0.00056218153
0.00051085328
0.00046606421
0.00042647137
0.00039075436
0.00035809387
0.00032819001
0.00030024464
0.00027386087
0.00024882681
0.00022501194
0.00020229706
0.00018057003
0.00015980514
0.00014003038
0.00012130266
0.00010367201
8.7192515e-05
7.1940168e-05
5.8005115e-05
4.540138e-05
3.3931347e-05
2.366747e-05
1.5098893e-05
8.4296889e-06
3.8939649e-06
1.4504622e-06
4.4366057e-07
1.0948909e-07
1.9770189e-08
2.1238221e-09
8.6855305e-11
1.3669066e-12
4.0045459e-07
3.870709e-07
3.7476104e-07
3.5732443e-07
3.3896327e-07
3.2074392e-07
3.0302978e-07
2.8635778e-07
2.7112656e-07
2.5727105e-07
2.5036185e-07
3.5129087e-07
1.5071588e-06
9.3332399e-06
4.4461083e-05
0.00016258611
0.00049902925
0.0011492688
0.0015736174
0.0016050839
0.0016685615
0.001762958
0.0018385624
0.0018842733
0.0019043148
0.0019043019
0.0018834314
0.0018405767
0.0017847714
0.0017156962
0.001632405
0.0015377419
0.0014354007
0.0013277295
0.0012169488
0.0011075302
0.0010020924
0.00090327714
0.00081304287
0.00073226627
0.00066093738
0.00059853098
0.0005442128
0.00049689225
0.00045528671
0.00041808133
0.0003840774
0.00035284375
0.0003239499
0.00029684899
0.00027122123
0.00024688993
0.0002238072
0.00020200225
0.00018147629
0.0001621123
0.00014378333
0.0001263727
0.00010978094
9.3956466e-05
7.8905884e-05
6.4560202e-05
5.0704461e-05
3.7578848e-05
2.5981916e-05
1.6321351e-05
8.946644e-06
4.0706328e-06
1.5040585e-06
4.5910982e-07
1.1328552e-07
2.0453953e-08
2.1968774e-09
8.9767762e-11
1.3373132e-12
3.8631573e-07
3.7386554e-07
3.6222765e-07
3.456098e-07
3.2804439e-07
3.104535e-07
2.9314644e-07
2.7624563e-07
2.597064e-07
2.4500688e-07
2.422877e-07
3.7774027e-07
1.8036098e-06
1.0911285e-05
5.0360635e-05
0.00018481139
0.00055726802
0.0012110175
0.0015760832
0.0016047858
0.0016808951
0.0017792082
0.0018520451
0.0018932836
0.001908469
0.0019019633
0.0018720251
0.0018223561
0.0017619766
0.0016895494
0.0016048871
0.0015099154
0.0014071801
0.0013003169
0.0011943039
0.0010923495
0.00099377087
0.00089995763
0.00081226605
0.00073222816
0.00066107098
0.000599131
0.00054569398
0.00049935509
0.00045860068
0.00042213035
0.00038893611
0.00035872205
0.00033076463
0.00030449589
0.00027971005
0.00025638844
0.00023450169
0.00021391695
0.0001944288
0.00017584635
0.00015798061
0.0001407042
0.0001240466
0.00010784605
9.1437497e-05
7.4064505e-05
5.734173e-05
4.2062574e-05
2.8763323e-05
1.7879704e-05
9.7191192e-06
4.4020444e-06
1.625774e-06
4.9641583e-07
1.224748e-07
2.2110394e-08
2.3751693e-09
9.7624412e-11
2.1492229e-12
3.7363108e-07
3.6243001e-07
3.5131689e-07
3.3539946e-07
3.1858466e-07
3.0170255e-07
2.8512244e-07
2.6935718e-07
2.5478852e-07
2.4175409e-07
2.4058354e-07
3.9983075e-07
2.0320038e-06
1.2371565e-05
5.6039358e-05
0.0001947442
0.00056770244
0.0012140656
0.0015726505
0.0016050647
0.0016817931
0.0017779285
0.0018478134
0.0018861909
0.0018995527
0.0018928874
0.0018631246
0.0018140903
0.0017537449
0.00167928
0.0015914781
0.0014934976
0.0013891122
0.0012818235
0.0011738756
0.0010663948
0.00096271698
0.00086662112
0.00078076577
0.00070604195
0.00064176639
0.00058638309
0.00053816331
0.00049568064
0.00045782266
0.0004235771
0.00039194188
0.00036263624
0.00033533673
0.00030998604
0.00028664379
0.00026521263
0.00024534716
0.00022665421
0.00020877971
0.00019145234
0.00017449061
0.0001576037
0.00013994045
0.00012041938
0.00010007336
8.0309526e-05
6.1719367e-05
4.4874119e-05
3.0377089e-05
1.8699958e-05
1.0092188e-05
4.5588288e-06
1.6847641e-06
5.1465535e-07
1.2694557e-07
2.2913198e-08
2.4618935e-09
1.0200173e-10
3.2298162e-12
3.6109057e-07
3.5058274e-07
3.4001882e-07
3.2476933e-07
3.0863505e-07
2.9229804e-07
2.76116e-07
2.6026248e-07
2.4465136e-07
2.3088257e-07
2.3316863e-07
4.2349909e-07
2.2823938e-06
1.3584926e-05
6.024289e-05
0.00021298783
0.00062019794
0.0012658549
0.0015708495
0.0016044001
0.0016934955
0.001793722
0.0018612946
0.0018956911
0.0019044956
0.0018904844
0.0018509026
0.0017947209
0.0017288704
0.001651914
0.0015645271
0.0014685527
0.001366389
0.0012613028
0.001157941
0.0010587793
0.00096564469
0.00087886693
0.00079844874