/*--------------------------------*- C++ -*----------------------------------*\
| =========                 |                                                 |
| \\      /  F ield         | OpenFOAM: The Open Source CFD Toolbox           |
|  \\    /   O peration     | Version:  2212                                  |
|   \\  /    A nd           | Website:  www.openfoam.com                      |
|    \\/     M anipulation  |                                                 |
\*---------------------------------------------------------------------------*/
FoamFile
{
    version     2.0;
    format      ascii;
    arch        "LSB;label=32;scalar=64";
    class       volScalarField;
    location    "0.5";
    object      omega;
}
// * * * * * * * * * * * * * * * * * * * * * * * * * * * * * * * * * * * * * //

dimensions      [0 0 -1 0 0 0 0];

internalField   nonuniform List<scalar> 
15300
(
88.412596
88.417312
88.419872
88.419354
88.429497
88.437902
88.468437
88.47687
88.479292
88.47891
88.477573
88.461967
88.445156
88.467543
88.581582
88.858974
92.559169
115.45249
175.48851
242.41709
248.45373
294.53161
328.84172
357.8619
385.98262
415.12708
445.81872
479.01588
514.72189
553.73136
596.09198
642.04731
692.33886
746.98438
807.24288
872.51161
944.23557
1022.5275
1108.8476
1203.2826
1307.6111
1422.059
1548.5441
1687.9885
1841.7975
2012.3285
2201.4447
2410.7888
2644.8794
2906.5355
3202.6756
3535.4713
3916.7656
4353.6839
4864.3142
5465.7019
6179.3497
7034.62
8080.506
9381.8677
11035.513
13134.621
15610.877
18678.093
22601.24
27689.308
34545.005
44110.172
58181.098
81452.169
125503.72
225283.6
501029.81
1547780
9208838.1
88.12259
88.12743
88.136126
88.147999
88.148929
88.151983
88.134208
88.12911
88.131001
88.133871
88.136922
88.156394
88.191266
88.286477
88.6091
89.220589
93.435922
117.67683
180.31621
238.81917
252.34982
294.66493
329.90085
359.55146
387.99222
417.26711
448.16878
481.48095
517.5528
556.81183
599.38316
645.51215
695.66253
750.34423
809.62394
873.98336
944.09511
1020.7464
1104.5891
1196.3118
1296.827
1407.0807
1528.2586
1661.6994
1809.0425
1972.3447
2154.1342
2357.5384
2586.5927
2846.2845
3142.9955
3484.3725
3879.5099
4338.8548
4875.2767
5506.8074
6258.6815
7161.5219
8253.2712
9574.7424
11183.13
13156.128
15600.104
18664.152
22569.717
27652.008
34446.442
43894.055
57891.006
80946.939
124887.5
223835.76
496485.5
1545445.7
9208845.4
87.871632
87.885412
87.897763
87.908868
87.925367
87.941362
87.970385
87.985002
87.992365
87.9921
87.988808
87.975671
87.972474
88.121895
88.655859
89.419103
94.080457
120.58979
184.73345
236.52466
255.34128
295.30113
331.2058
361.4708
390.24284
419.68759
450.77047
484.22776
520.4919
559.87959
602.57644
648.85793
699.04937
753.3096
811.69297
874.87715
943.81356
1018.9016
1100.8273
1190.2753
1288.0968
1395.3092
1513.1663
1643.2418
1787.5289
1948.5434
2129.4049
2333.8999
2566.5673
2832.3919
3137.1902
3487.7881
3893.1961
4365.8314
4920.3895
5572.4997
6340.1392
7249.9281
8336.5192
9642.7445
11225.773
13165.09
15572.086
18605.66
22492.538
27567.194
34358.321
43796.485
57774.575
80809.993
124757.84
223747.14
496445.76
1545447.5
9208852.5
87.648705
87.660731
87.677128
87.696334
87.706909
87.714826
87.707653
87.710815
87.717585
87.715972
87.713813
87.726468
87.770126
88.004675
88.711975
89.847208
95.364609
123.76296
188.59126
236.41815
258.10086
296.64948
332.91426
363.69074
392.77714
422.44234
453.78394
487.52615
524.10322
563.78611
606.76631
653.24951
703.36061
757.07537
814.53935
876.58151
944.19278
1017.9262
1098.272
1186.0355
1282.1388
1387.7681
1504.4366
1634.0299
1778.8497
1941.5858
2125.2077
2333.1627
2569.3683
2839.3377
3149.7108
3508.567
3925.0537
4408.6087
4970.8657
5626.948
6396.9487
7307.4107
8391.4046
9691.9997
11267.568
13198.332
15595.83
18615.641
22478.662
27513.084
34240.813
43586.129
57453.565
80403.008
124362.58
223469.05
496307.2
1545411.4
9208859.2
87.469138
87.488031
87.504542
87.519016
87.541096
87.557824
87.584535
87.606414
87.620341
87.617681
87.606239
87.594157
87.612222
87.935693
88.821063
90.105213
96.25648
127.38381
192.47745
236.7722
260.78851
298.59534
334.89586
366.09502
395.50187
425.40835
456.98947
490.95917
527.73913
567.58462
610.67044
657.11044
706.89699
759.9957
816.75332
878.13771
945.09552
1018.1125
1097.6417
1184.5706
1280.0851
1385.5593
1502.6036
1633.0842
1779.1208
1943.2274
2128.7413
2339.5739
2580.5665
2857.2889
3175.8845
3543.1887
3967.0158
4456.94
5024.9913
5687.2482
6464.1629
7380.5314
8468.4115
9770.5252
11344.527
13268.937
15652.35
18645.546
22464.979
27432.103
34062.379
43282.749
57023.403
79895.759
123893.39
223143.99
496141.44
1545358.7
9208865.9
87.318769
87.329048
87.346861
87.366674
87.37971
87.391418
87.394063
87.403385
87.417776
87.415432
87.403396
87.404572
87.469835
87.908907
88.920883
90.651014
98.022537
131.2532
196.11008
237.59956
263.52473
300.99079
337.26123
368.77062
398.46771
428.63901
460.5134
494.80138
531.9069
572.05452
615.35802
661.82977
711.39616
764.06929
820.27554
880.97046
947.06993
1019.2595
1098.3991
1185.2184
1280.7986
1386.5229
1504.0564
1635.387
1782.9292
1949.6572
2139.0764
2355.1419
2602.3603
2885.453
3210.0747
3582.7625
4011.2456
4505.6332
5078.975
5746.7733
6527.9096
7446.3936
8533.5722
9831.1201
11395.243
13302.608
15658.996
18613.807
22376.727
27264.523
33797.038
42906.447
56547.105
79372.088
123428.33
222827.08
495979.15
1545304.1
9208872.6
87.197089
87.214016
87.231823
87.249647
87.269793
87.285264
87.311095
87.338895
87.360712
87.359354
87.34171
87.326162
87.379127
87.918196
89.11169
90.99172
99.202528
135.43817
199.89946
239.13582
266.36714
303.65005
339.86335
371.62928
401.61628
432.06478
464.21704
498.76721
536.09218
576.37695
619.67711
665.95303
715.14571
767.36114
823.10207
883.38999
949.26781
1021.3229
1100.2925
1187.1467
1283.0349
1389.3981
1508.0036
1641.005
1791.0314
1961.2424
2154.835
2375.6366
2627.8857
2916.2432
3246.006
3623.7174
4058.0617
4559.6227
5140.1736
5813.8281
6598.3492
7516.7159
8599.2642
9886.6239
11433.839
13316.292
15639.538
18548.778
22254.422
27074.316
33526.499
42546.004
56109.701
78905.423
123022.92
222554.61
495840.98
1545258.7
9208879.4
87.096992
87.112069
87.130081
87.152368
87.165043
87.184664
87.195437
87.210218
87.233381
87.236786
87.224962
87.213163
87.321345
87.948008
89.260378
91.704017
101.5122
139.83159
203.48092
240.9799
269.35342
306.63366
342.78929
374.74903
405.0007
435.73791
468.20826
503.09237
540.7369
581.27938
624.71925
670.98892
720.07086
772.15369
827.76618
887.89142
953.55119
1025.4821
1104.4846
1191.6631
1288.3148
1396.015
1516.6718
1652.5427
1806.1914
1980.3521
2178.2983
2403.6334
2660.2995
2952.8291
3287.0866
3670.4442
4111.0401
4618.0452
5202.2847
5877.1103
6659.6002
7572.1562
8644.6388
9917.185
11444.165
13300.06
15586.947
18450.048
22099.621
26851.976
33225.031
42156.745
55648.23
78422.754
122611.31
222282.07
495704.72
1545215.4
9208886.3
87.020445
87.04383
87.058252
87.079238
87.102279
87.120842
87.1471
87.179904
87.207563
87.211227
87.195551
87.189274
87.30687
88.017369
89.541762
92.151596
102.99443
144.40773
207.26484
243.21922
272.50821
309.8248
345.91787
378.04449
408.56209
439.59834
472.37622
507.54397
545.40607
586.05156
629.44335
675.52281
724.34162
776.1776
831.61843
891.60486
957.18921
1029.2643
1108.693
1196.5841
1294.3593
1403.6739
1526.4719
1664.9994
1821.7874
1999.6317
2201.6087
2431.1059
2692.1215
2989.8866
3330.6655
3720.9366
4167.8654
4679.8335
5267.0234
5942.235
6722.0371
7628.2459
8689.9427
9946.3624
11451.053
13278.834
15531.267
18352.489
21950.582
26640.882
32941.298
41792.668
55220.078
77979.425
122237.49
222036.73
495583.15
1545178
9208893.1
86.968074
86.992728
87.004263
87.027845
87.049114
87.067947
87.090423
87.119364
87.148163
87.154129
87.148071
87.143113
87.311747
88.090213
89.741474
93.034433
105.77899
149.19128
210.83821
245.61792
275.80693
313.26576
349.31335
381.57969
412.34998
443.69337
476.80896
512.3168
550.48278
591.3556
634.87634
681.00533
729.86154
781.81304
837.50874
897.81618
963.76715
1036.391
1116.6593
1205.7848
1305.1877
1416.584
1541.9597
1683.5498
1843.8011
2025.3406
2231.0848
2464.74
2730.9593
3034.7867
3381.59
3777.1828
4228.1391
4742.2537
5329.1554
6001.1521
6774.3867
7670.3424
8717.9284
9956.3201
11438.849
13237.477
15454.366
18232.237
21777.249
26403.205
32627.832
41398.831
54761.264
77509.798
121846.98
221783.53
495459.21
1545140.9
9208899.8
86.930054
86.956856
86.969063
86.990358
87.015525
87.035431
87.068336
87.107429
87.141242
87.148069
87.133852
87.143858
87.335294
88.237361
90.119814
93.680433
107.76875
154.03866
214.64017
248.35487
279.29846
316.89032
352.88929
385.28351
416.31176
447.97405
481.42199
517.22859
555.612
596.58222
640.07036
686.08301
734.83033
786.77478
842.61093
903.19083
969.47555
1042.5951
1123.7642
1214.1853
1315.3346
1428.9621
1557.0165
1701.6114
1865.0471
2049.9849
2259.8527
2498.7798
2771.0534
3081.205
3434.0714
3834.9193
4289.761
4805.8596
5392.3901
6061.319
6828.5274
7715.2388
8749.9291
9971.029
11431.005
13202.763
15385.987
18121.978
21615.283
26178.39
32329.117
41023.836
54325.169
77066.577
121482.06
221548.8
495345.25
1545107.7
9208906.6
86.899276
86.927385
86.939302
86.963009
86.986469
87.010824
87.042096
87.083986
87.123743
87.133642
87.130629
87.148245
87.368699
88.34465
90.371908
94.691421
110.92801
159.10046
218.2237
251.16183
282.91487
320.71495
356.68886
389.2086
420.49524
452.48603
486.29045
522.44272
561.12275
602.31649
645.97167
692.15657
741.14495
793.4425
849.77754
911.04648
978.26282
1052.5224
1135.001
1227.0708
1330.3103
1446.3819
1577.1386
1724.7215
1891.7037
2081.1041
2296.3518
2541.1727
2819.4471
3135.2258
3492.817
3896.9894
4353.3405
4868.7796
5452.1944
6115.3403
6873.9001
7748.8994
8768.6818
9971.6161
11409.037
13152.178
15300.448
17993.095
21432.449
25929.298
32001.553
40615.843
53854.841
76594.552
121099.04
221305.34
495228.36
1545074.4
9208913.2
86.877616
86.907986
86.922535
86.944079
86.971189
87.000693
87.031698
87.085554
87.130744
87.143637
87.139253
87.169896
87.445438
88.559602
90.853705
95.649524
113.46136
164.13105
222.05543
254.29184
286.74274
324.71937
360.66355
393.30486
424.85848
457.19208
491.35371
527.82204
566.73184
608.04962
651.74539
697.94234
746.98313
799.44835
856.12862
917.96295
985.9988
1061.3654
1145.2844
1239.1192
1344.3904
1462.8019
1596.3209
1747.2457
1918.2599
2112.4215
2333.0754
2583.7353
2867.9749
3189.4195
3551.881
3959.6425
4417.8911
4933.2168
5514.2743
6172.6462
6923.8418
7788.6102
8794.6999
9979.5776
11395.476
13111.763
15225.874
17875.385
21260.678
25691.091
31685.016
40220.356
53400.374
76142.713
120736.65
221077.04
495119.71
1545044.2
9208919.7
86.861364
86.892783
86.907675
86.934067
86.959508
86.99658
87.032612
87.089868
87.137414
87.152691
87.153898
87.193278
87.502403
88.699195
91.162976
96.788809
116.98176
169.38572
225.66408
257.43429
290.67481
328.89034
364.83278
397.61215
429.44729
462.13862
496.68081
533.50895
572.72702
614.29966
658.2444
704.75645
754.24033
807.32061
864.8101
927.66046
996.93055
1073.7682
1159.4224
1255.2837
1362.9258
1484.1577
1621.0771
1776.1026
1951.9745
2151.6831
2378.3408
2635.0701
2924.9624
3251.147
3616.9858
4026.41
4484.3444
4997.1993
5573.5214
6224.7897
6966.3781
7818.8827
8809.9512
9976.79
11368.75
13055.6
15133.152
17736.767
21064.501
25424.06
31334.549
39787.341
52909.086
75662.309
120357.96
220841.75
495009.17
1545014.3
9208926.1
86.850445
86.884334
86.901216
86.927051
86.959583
86.998654
87.039053
87.104766
87.160847
87.182994
87.190456
87.248449
87.62535
88.977288
91.760306
98.071954
120.04749
174.5426
229.54311
260.91404
294.84497
333.25513
369.19035
402.10822
434.23584
467.30249
502.23281
539.40395
578.88511
620.64568
664.74522
711.4251
761.14364
814.59241
872.64857
936.3181
1006.6953
1084.9577
1172.3897
1270.4208
1380.6768
1505.0326
1645.6489
1804.9969
1985.8173
2190.9996
2423.4595
2686.0335
2981.4447
3312.4067
3681.8907
4093.5205
4551.9636
5063.4402
5636.3916
6282.166
7015.9167
7857.7999
8834.7129
9982.9609
11353.069
13011.688
15052.966
17610.238
20879.411
25166.817
30992.798
39363.677
52430.516
75199.768
119998.27
220620.69
494906.56
1544987.5
9208932.2
86.842416
86.878647
86.895811
86.926992
86.961805
87.003608
87.049551
87.11881
87.178021
87.203478
87.216865
87.286881
87.703545
89.149394
92.135438
99.395681
123.94413
179.93787
233.20113
264.3683
299.10367
337.7669
373.72785
406.81696
439.26648
472.7316
508.07723
545.63877
585.46604
627.55063
672.01356
719.16998
769.55118
823.89732
883.09531
948.13942
1020.1204
1100.2375
1189.8246
1290.3904
1403.6665
1531.6431
1676.5929
1841.0512
2027.6989
2239.2095
2478.118
2746.7689
3047.3826
3382.2453
3754.016
4166.1149
4623.0801
5131.0521
5698.399
6336.3554
7059.8962
7888.9795
8850.2794
9979.5222
11323.782
12950.465
14951.76
17458.681
20664.797
24875.055
30611.498
38898.429
51914.081
74710.972
119625.7
220395.35
494803.66
1544961.6
9208938
86.837518
86.875536
86.894684
86.928477
86.968478
87.014859
87.072749
87.150233
87.21926
87.253211
87.27638
87.370789
87.867606
89.493826
92.868389
101.02574
127.53758
185.19479
237.16067
268.20183
303.64492
342.50809
378.49002
411.75391
444.53774
478.42299
514.20017
552.14758
592.29579
634.66865
679.43668
726.95403
777.79291
832.73813
892.73646
958.85806
1032.2709
1114.2383
1206.1483
1309.568
1426.2918
1558.3568
1708.0522
1877.8598
2070.3137
2287.8684
2532.7894
2807.1132
3112.7247
3451.5887
3826.1112
4239.4889
4696.0923
5201.9762
5765.3985
6397.4194
7112.7015
7930.6003
8876.9447
9986.5274
11307.612
12903.875
14865.389
17320.786
20461.505
24591.765
30238.347
38440.237
51407.56
74237.96
119270.7
220183.55
494708.58
1544939
9208943.4
86.83367
86.874472
86.89522
86.931666
86.975128
87.024448
87.088911
87.170401
87.243875
87.282076
87.312618
87.422356
87.966103
89.699696
93.323749
102.59378
131.83648
190.7147
240.91131
271.98713
308.26781
347.39116
383.43365
416.9211
450.08631
484.42726
520.67071
559.06186
599.6306
642.44135
687.72436
735.90915
787.65765
843.81986
905.36199
973.33438
1048.8803
1133.2738
1227.9733
1334.6657
1455.264
1591.9233
1747.0254
1923.0333
2122.3207
2347.0095
2598.8745
2879.3948
3189.959
3532.18
3908.2799
4321.3501
4775.7111
5277.4134
5834.6345
6458.2395
7162.5885
7966.7224
8895.917
9983.9671
11275.554
12834.69
14749.484
17146.134
20214.145
24257.582
29810.808
37927.336
50854.53
73735.278
118901.99
219967.27
494612.92
1544916.7
9208948.4
86.831128
86.874798
86.896796
86.938665
86.98846
87.044275
87.122035
87.212786
87.297951
87.346573
87.390288
87.53287
88.17079
90.115078
94.223182
104.61368
135.98099
196.08232
245.01
276.22578
313.24589
352.56848
388.66954
422.38806
455.94848
490.77136
527.50966
566.3553
607.33869
650.57759
696.35605
745.15039
797.65375
854.73071
917.39253
986.78539
1064.1824
1150.9928
1248.788
1359.3203
1484.5335
1626.5867
1787.7799
1970.3776
2176.4501
2407.7603
2665.7475
2951.6187
3266.5593
3612.0559
3990.2025
4403.9469
4857.4809
5356.6719
5909.4576
6526.3893
7221.3796
8012.832
8925.2297
9991.3363
11256.567
12781.044
14650.441
16988.309
19982.042
23935.732
29392.777
37423.601
50315.688
73254.403
118556.28
219768.51
494527.55
1544899
9208952.9
86.829474
86.875699
86.900301
86.944201
86.997327
87.057531
87.14179
87.237703
87.328169
87.382211
87.43488
87.596826
88.289823
90.360176
94.780979
106.50028
140.73312
201.75161
248.92617
280.40816
318.30978
357.89817
394.10673
428.12297
462.14791
497.50807
534.7891
574.16289
615.68979
659.53874
706.04559
755.76189
809.47964
868.16378
932.88476
1004.7859
1085.1095
1175.2584
1276.8526
1391.7324
1521.9917
1669.9332
1837.8626
2027.9256
2241.9431
2481.2887
2746.8936
3039.4225
3359.5925
3708.5622
4088.1606
4501.189
4951.8605
5446.0589
5991.6662
6599.0556
7281.795
8057.6117
8949.8931
9990.0176
11220.389
12700.384
14513.223
16780.053
19686.845
23539.095
28893.06
36839.726
49711.417
72732.361
118189.72
219560.59
494438.38
1544878.9
9208956.8
86.82747
86.877414
86.903873
86.954598
87.01526
87.084616
87.181566
87.289231
87.392617
87.459311
87.52877
87.731817
88.538829
90.860584
95.897412
108.98318
145.49016
207.28091
253.2583
285.15846
323.84205
363.62762
399.94758
434.27634
468.78308
504.7119
542.57943
582.51768
624.60905
669.08023
716.33233
766.99162
821.88521
881.967
948.32027
1022.1914
1105.0108
1198.4026
1304.1668
1424.264
1560.8145
1715.9938
1891.8614
2090.1902
2312.3188
2559.1086
2831.0576
3128.5612
3452.2686
3803.3954
4183.8589
4596.5383
5045.5802
5536.586
6076.9567
6676.3907
7347.5793
8107.4416
8978.6726
9991.6452
11187.981
12624.532
14382.123
16579.407
19400.908
23154.39
28408.832
36278.933
49143.026
72255.932
117865.56
219383.28
494366.79
1544866.7
9208960
86.827534
86.880913
86.911192
86.964567
87.027019
87.101871
87.204834
87.319121
87.428435
87.501525
87.581679
87.808687
88.681728
91.15571
96.591568
111.29032
150.78235
213.16644
257.45444
289.86139
329.47661
369.5364
406.03062
440.76068
475.84778
512.43036
550.957
591.56135
634.38619
679.71893
728.0194
779.98352
836.5278
898.74468
967.85714
1045.1772
1132.1297
1230.3094
1341.4882
1467.6824
1611.124
1774.0329
1958.4074
2165.8008
2397.1842
2652.9779
2933.2586
3238.0844
3567.8553
3923.4499
4306.3725
4719.1308
5165.5104
5650.8447
6182.3744
6769.6826
7425.2424
8165.1532
9010.5168
9989.7077
11143.764
12524.411
14209.632
16316.272
19029.414
22664.215
27803.359
35596.553
48474.65
71713.2
117502.84
219185.1
494284.21
1544847.5
9208962.4
86.828587
86.884833
86.917509
86.977492
87.051113
87.137279
87.251996
87.380903
87.504166
87.591908
87.692486
87.969304
88.978193
91.759135
97.975053
114.35331
156.26548
218.95245
262.16218
295.2995
335.74984
376.00882
412.69327
447.85404
483.54739
520.8241
560.0744
601.41999
645.04461
691.28885
740.69589
794.07283
852.41004
916.80123
988.44536
1068.733
1159.3155
1262.0649
1379.0538
1512.5219
1664.6749
1837.4721
2032.4183
2250.4105
2491.7331
2756.2229
3043.5425
3353.5024
3686.3205
4042.672
4424.0191
4833.052
5273.802
5751.7653
6273.9497
6849.1094
7488.3983
8206.3016
9022.2648
9961.4233
11061.262
12378.174
13988.569
16008.36
18623.819
22159.506
27210.574
34960.924
47885.374
71261.151
117217.38
219039.66
494230.34
1544840
9208964
86.831547
86.893101
86.930729
86.993884
87.067546
87.160068
87.280636
87.41754
87.547305
87.642438
87.756062
88.064444
89.15948
92.144934
98.916412
117.23377
162.23396
225.16474
266.81183
300.72334
342.156
382.70588
419.66488
455.37437
491.8127
529.91337
570.00349
612.24139
656.89543
704.38181
755.33486
810.63684
871.34594
938.7008
1014.1424
1099.2835
1195.8537
1305.6832
1430.7886
1573.3391
1735.4274
1918.8364
2124.8123
2353.943
2606.1733
2880.9397
3177.4744
3495.2388
3834.1366
4194.8093
4579.0716
4989.8707
5431.1087
5907.3719
6424.2757
6987.4043
7603.712
8290.5979
9070.3539
9969.6647
11020.788
12272.051
13796.039
15706.182
18190.159
21584.326
26508.868
34200.396
47187.872
70732.95
116885.58
218872.5
494176.23
1544854.1
9208964.8
86.837189
86.901216
86.941548
87.012692
87.10084
87.206864
87.338892
87.492804
87.637462
87.749174
87.887339
88.25656
89.515342
92.885324
100.63258
121.02816
168.56459
231.3013
272.06089
307.06264
349.38685
390.15026
427.4212
463.73314
500.95548
539.93045
580.95441
624.21728
670.03521
718.88552
771.51381
828.9396
892.36483
963.1278
1042.688
1132.6847
1234.9879
1351.7826
1485.4981
1638.4845
1812.7453
2009.6702
2229.8308
2472.8739
2737.6202
3022.5928
3326.6522
3649.4421
3991.4099
4353.5358
4737.06
5143.423
5573.064
6028.8168
6518.0587
7048.7109
7632.5971
8278.0544
8997.5448
9813.7897
10759.14
11881.913
13257.017
15004.749
17327.512
20579.859
25417.195
33126.883
46263.25
70039.279
116432.06
218637.59
494166.51
1545257.3
9211763.9
86.849869
86.917738
86.964178
87.037082
87.124628
87.235846
87.373687
87.536355
87.688077
87.80806
87.960958
88.365711
89.719619
93.321088
101.74513
124.14443
174.3893
236.94873
276.55566
312.51081
355.67237
396.71015
434.35432
471.29594
509.30409
549.11793
591.00184
635.20932
682.14031
732.37197
786.763
846.40413
912.5392
986.5933
1070.2528
1165.4501
1274.2609
1398.8638
1541.4328
1703.9561
1887.965
2094.1991
2322.3615
2571.2776
2839.754
3126.7976
3431.8552
3754.4836
4092.6896
4444.0687
4808.1947
5188.1473
5586.7514
6006.6173
6448.3451
6916.8542
7419.1587
7965.3875
8571.1622
9260.5189
10069.78
11054.375
12300.63
13946.994
16217.885
19488.213
24428.3
32311.098
45656.296
69648.358
116266.45
218762.73
494858.14
1547825.6
9227611.3
86.861274
86.932906
86.980514
87.065457
87.167928
87.29416
87.444364
87.625099
87.792859
87.931131
88.110749
88.577658
90.093309
94.0812
103.43824
127.72833
179.87598
241.84615
281.10678
318.24772
362.08656
403.33924
441.36835
478.90274
517.59318
558.1187
600.76632
645.8382
693.76128
745.15942
800.96692
862.37039
930.74916
1007.6797
1094.8917
1194.1986
1307.6254
1437.4925
1586.135
1755.4035
1946.296
2158.7668
2392.0427
2645.524
2917.0308
3204.1949
3504.068
3811.3503
4125.9294
4452.1996
4789.7333
5136.2668
5492.2621
5858.6662
6237.6799
6634.0638
7056.0365
7516.4865
8034.5681
8638.6231
9371.6321
10299.357
11521.142
13181.67
15508.425
18878.786
23959.367
32011.89
45536.449
69711
116553.71
219441.66
496514.83
1553134.7
9259413.5
86.885551
86.959704
87.013998
87.097901
87.201598
87.331816
87.486087
87.675865
87.851535
87.999001
88.194164
88.696171
90.303057
94.514982
104.53577
130.52705
184.72965
246.34482
284.95938
323.01775
367.4865
409.03127
447.49087
485.63309
525.023
566.2739
609.66638
655.55386
704.43291
757.03624
814.40289
877.77028
948.53841
1028.2798
1118.7657
1222.0394
1340.3807
1475.9505
1630.4038
1805.0287
2000.4137
2216.5253
2453.0213
2706.8539
2974.555
3250.804
3533.1188
3825.9319
4126.5102
4430.1845
4736.234
5043.6656
5352.4637
5664.3473
5983.5129
6317.3654
6677.2402
7079.4672
7547.3897
8114.7016
8829.5611
9758.8554
10999.706
12700.716
15095.685
18566.988
23780.503
31987.265
45672.318
70028.34
117140.59
220570.1
499080.8
1561178
9307385.9
86.902631
86.981649
87.036813
87.133717
87.253192
87.398788
87.569187
87.778589
87.971887
88.139344
88.362384
88.92352
90.677968
95.242546
106.08134
133.70751
189.31089
250.21955
288.92766
328.15519
373.18212
415.01589
453.93946
492.67583
532.68673
574.55381
618.61125
665.26442
715.03315
768.6751
827.25821
892.09104
964.68014
1046.7312
1140.1292
1246.8511
1368.86
1508.1459
1666.9471
1846.1437
2045.7408
2264.8083
2500.725
2749.0021
3003.043
3264.5054
3533.4759
3806.3806
4080.63
4353.3372
4622.6083
4887.8344
5150.2893
5413.6905
5684.6116
5972.7734
6291.6757
6660.0843
7104.7806
7662.8178
8381.574
9328.8071
10605.422
12365.236
14848.107
18440.688
23802.192
32168.117
46016.92
70567.739
118001.49
222128.75
502550.53
1571995.1
9371855.9
86.938202
87.018422
87.078803
87.178316
87.29878
87.447788
87.620856
87.836364
88.038386
88.21587
88.45456
89.047906
90.883127
95.648491
107.06946
136.0452
193.12984
253.68569
292.16399
332.20575
377.73062
419.90434
459.30381
498.63154
539.28916
581.83166
626.59856
674.02002
724.66795
779.40862
839.42082
906.04916
980.8012
1065.3573
1161.4813
1271.0951
1396.4343
1539.7834
1702.7188
1885.5041
2087.3911
2306.0656
2536.8867
2773.7815
3019.4678
3272.2837
3528.1048
3781.6312
4030.3583
4272.1289
4506.1476
4733.6843
4958.4232
5186.4961
5426.5478
5690.2329
5993.3959
6357.5959
6810.0703
7385.0221
8130.2264
9115.1805
10443.427
12272.124
14843.938
18545.151
24033.345
32539.33
46544.23
71308.466
119130.64
224130.05
506957.93
1585670.8
9453266.7
86.960443
87.049437
87.110617
87.221454
87.358683
87.522624
87.715132
87.950952
88.173643
88.372558
88.63891
89.283813
91.239959
96.287933
108.35664
138.62593
196.71261
256.64002
295.54424
336.67582
382.71692
425.30681
465.27314
505.23719
546.5269
589.68694
635.11604
683.29949
734.85142
790.65306
851.86086
919.87589
996.30594
1082.8463
1181.4037
1294.2102
1423.3279
1570.3637
1736.0744
1920.4173
2121.7641
2336.0152
2557.6426
2787.815
3023.2213
3260.1364
3495.3152
3724.6976
3945.658
4157.1257
4359.9378
4556.9915
4753.2626
4955.9504
5174.8439
5423.0761
5718.2664
6082.2129
6540.5385
7128.1805
7895.0186
8914.0931
10292.251
12189.48
14851.004
18663.778
24285.723
32945.723
47133.793
72160.23
120462.59
226531.43
512292.2
1602275.6
9552185.8
87.006204
87.092799
87.162085
87.272002
87.411317
87.580702
87.778323
88.019462
88.247332
88.456907
88.738219
89.409881
91.429425
96.641337
109.14436
140.37918
199.46288
259.1418
298.13687
339.96743
386.4375
429.42112
469.9033
510.46721
552.40509
596.26837
642.47359
691.51789
744.04157
801.00043
863.68396
933.53964
1012.1113
1101.1776
1202.6814
1318.7681
1451.4518
1601.9692
1770.6103
1956.5909
2157.2487
2368.5069
2585.8818
2807.5808
3030.8768
3252.5469
3469.3462
3676.8368
3872.8189
4057.4846
4233.5061
4405.865
4581.6403
4770.0374
4982.9297
5235.3297
5544.1763
5929.6324
6418.3674
7047.0437
7867.4093
8954.0522
10416.53
12418.583
15205.223
19157.454
24921.473
33723.812
48078.64
73367.997
122197.25
229495.99
518693.7
1621983.4
9669309.5
87.032902
87.131779
87.198935
87.325916
87.480388
87.66183
87.878202
88.138652
88.396131
88.628146
88.935342
89.646047
91.747484
97.144468
110.07207
142.18878
201.94933
261.19641
300.84897
343.6449
390.62955
434.19344
475.38235
516.68346
559.35605
603.9652
650.97807
700.9438
754.57098
812.87954
877.13952
948.83375
1029.636
1121.3244
1225.947
1345.8659
1482.4217
1636.4428
1807.5347
1994.1657
2193.4448
2401.7141
2615.3479
2830.0151
3041.3369
3243.9305
3434.5486
3614.8122
3783.3326
3942.328
4096.657
4253.1549
4420.3589
4608.3823
4829.2844
5095.8382
5424.4469
5834.9781
6352.6912
7012.7455
7865.3065
8983.4502
10477.197
12510.557
15330.195
19321.002
25137.682
34026.04
48543.891
74165.672
123687.09
232529.62
525856.57
1644753.5
9805477.8
87.086509
87.181809
87.258445
87.385384
87.541715
87.730182
87.952976
88.219513
88.476139
88.719281
89.040337
89.770693
91.911724
97.404871
110.57505
143.25536
203.60046
262.74597
302.72119
346.11254
393.49789
437.4945
479.22878
521.15837
564.52969
609.93512
657.88457
708.97317
763.97319
823.96834
890.31176
964.57133
1048.5205
1144.0879
1253.3833
1378.2146
1519.8508
1679.113
1855.3929
2045.7683
2246.4751
2454.3052
2666.5434
2876.735
3077.9998
3263.575
3434.5997
3592.5364
3743.0257
3891.6446
4044.5805
4208.729
4392.0056
4604.4822
4857.9002
5165.6249
5544.3256
6015.3525
6607.0832
7358.4257
8323.8032
9580.0356
11235.997
13448.022
16449.25
20613.538
26603.532
35702.199
50510.449
76549.893
126778.58
237176.76
534928.85
1671425.5
9961685
87.11923
87.225233
87.303393
87.439777
87.613702
87.817734
88.063231
88.346533
88.635082
88.902664
89.260429
90.05509
92.335188
98.334878
112.7606
148.17406
210.45146
268.94739
309.27583
354.31466
402.7056
447.50339
490.48164
534.08544
579.48764
627.33314
678.25581
733.02653
792.65815
858.46809
931.81839
1014.4254
1108.5103
1216.1751
1338.9955
1477.8455
1634.3555
1809.0984
1999.543
2200.8803
2407.6519
2615.0712
2818.9601
3013.9944
3197.1555
3369.6385
3530.7015
3683.4605
3833.8619
3988.9937
4156.5136
4344.5816
4561.9953
4818.4196
5124.8918
5495.3392
5948.1879
6507.4744
7204.2602
8078.3159
9179.4692
10568.576
12320.779
14539.935
17399.902
21245.526
26806.785
35559.056
50331.343
76827.083
128207.69
241042.8
544768.6
1702431.1
10139091
87.178032
87.282004
87.365897
87.509171
87.682234
87.889673
88.13987
88.434441
88.722809
88.999681
89.343628
90.07169
92.098603
97.276793
109.60896
139.73106
199.11795
258.64729
300.28151
343.9052
391.46184
436.48119
479.17624
521.73115
565.52103
611.28277
659.60301
711.1162
766.6111
827.12807
894.10289
969.2313
1054.2566
1151.0179
1261.2364
1386.5478
1527.9625
1685.1262
1857.2775
2042.8042
2238.3379
2439.0938
2639.6462
2834.6357
3020.1012
3193.9212
3355.5146
3507.2511
3652.8804
3796.1581
3942.2004
4096.9788
4267.1767
4460.4834
4686.0964
4955.3234
5282.4344
5685.9617
6190.6075
6830.0865
7650.881
8719.3103
10141.582
12121.081
15030.84
19491.135
26581.362
38183.631
57773.164
92408.176
158656.5
302824.93
689306.75
2160070.8
12875439
87.217498
87.329134
87.414301
87.56564
87.749122
87.965211
88.222991
88.520326
88.831666
89.111785
89.464293
90.153914
91.951262
96.513275
107.31575
133.14455
188.37407
249.03445
291.841
334.34803
380.85185
425.78717
468.28727
510.07624
552.59554
596.67379
642.8947
691.80262
744.01118
800.30547
861.76202
929.69392
1005.498
1090.605
1186.3554
1294.0594
1415.0646
1549.8769
1697.5774
1856.419
2024.3428
2198.6024
2375.6734
2551.7668
2723.6086
2889.063
3046.9675
3196.9367
3340.8254
3482.9229
3628.1514
3782.1745
3951.3991
4142.7089
4362.9935
4618.7053
4916.7044
5269.7978
5705.208
6264.287
7002.9426
8007.0087
9417.5445
11472.105
14628.503
19647.672
27759.579
40830.483
61912.651
97459.342
163850.62
307804.03
695101.13
2173358.9
12958860
87.286885
87.393987
87.490644
87.639568
87.828376
88.053344
88.325356
88.636629
88.948984
89.25231
89.585099
90.228519
91.850063
95.902183
105.40486
127.72421
178.1033
239.45661
283.60895
325.40281
370.87765
415.6168
458.02061
499.28935
540.8357
583.56477
628.08393
674.92705
724.646
777.91418
835.63678
898.94242
969.08295
1047.3507
1134.9742
1233.1893
1343.3715
1466.4699
1602.2376
1749.3095
1905.668
2068.7769
2235.5974
2402.8725
2567.6903
2728.0031
2882.9117
3032.8604
3179.873
3327.5223
3480.2681
3642.6625
3818.7479
4012.1337
4228.7324
4481.1801
4786.9683
5166.1063
5649.6176
6279.7657
7123.7559
8291.7807
9965.5854
12453.108
16223.966
22057.602
31116.778
45061.869
66712.729
102440.71
168749.3
312860.73
702024.33
2190531.8
13056960
87.331495
87.446879
87.541177
87.705208
87.902043
88.133284
88.411198
88.73223
89.07276
89.384371
89.738363
90.361448
91.813723
95.412171
103.82741
123.29987
168.55653
230.28615
275.69699
317.04359
361.55211
406.00775
448.37161
489.32582
530.17199
571.86804
615.05844
660.27251
708.01888
758.87892
813.60654
873.14763
938.58009
1011.0335
1091.6055
1181.4077
1281.6562
1393.3743
1516.8286
1651.2969
1795.2284
1946.4538
2102.3436
2260.0886
2417.2198
2572.1695
2724.5495
2875.1339
3025.6909
3178.7063
3336.6839
3501.8262
3678.0008
3874.239
4102.7773
4376.3108
4712.0918
5135.8802
5679.6945
6396.6667
7366.1891
8713.5739
10641.111
13479.214
17759.766
24289.591
34172.79
48903.091
71111.954
107042.63
173221.12
317420.71
708533.04
2207522.5
13155284
87.400741
87.513266
87.617616
87.792902
87.990008
88.228203
88.516678
88.848204
89.193327
89.524209
89.870439
90.467056
91.809077
95.039151
102.52819
119.63543
159.87964
221.3002
268.04828