/*--------------------------------*- C++ -*----------------------------------*\
| =========                 |                                                 |
| \\      /  F ield         | OpenFOAM: The Open Source CFD Toolbox           |
|  \\    /   O peration     | Version:  2212                                  |
|   \\  /    A nd           | Website:  www.openfoam.com                      |
|    \\/     M anipulation  |                                                 |
\*---------------------------------------------------------------------------*/
FoamFile
{
    version     2.0;
    format      ascii;
    arch        "LSB;label=32;scalar=64";
    class       volScalarField;
    location    "0.5";
    object      p;
}
// * * * * * * * * * * * * * * * * * * * * * * * * * * * * * * * * * * * * * //

dimensions      [0 2 -2 0 0 0 0];

internalField   nonuniform List<scalar> 
15300
(
5.7974783
6.3352345
7.2045702
8.2477527
9.3701215
10.506679
11.612885
12.648644
13.586932
14.44239
15.241416
15.978256
16.644657
17.249951
17.800592
18.305046
18.745322
19.146099
19.515533
19.785168
20.104678
20.341826
20.546368
20.710472
20.84449
20.955334
21.048909
21.128222
21.1948
21.249454
21.293122
21.328705
21.359185
21.385051
21.403803
21.411555
21.408945
21.402699
21.397541
21.39381
21.39091
21.389153
21.388851
21.389712
21.391325
21.393136
21.395468
21.39977
21.406404
21.415169
21.424923
21.436811
21.450826
21.468053
21.487975
21.510402
21.535435
21.5577
21.571401
21.578522
21.576023
21.55885
21.5371
21.510801
21.478847
21.439627
21.389701
21.333594
21.279704
21.241095
21.224816
21.220546
21.221618
21.221493
21.221045
5.5339226
6.0660784
6.9415494
8.0001811
9.1444456
10.305392
11.440375
12.517432
13.514753
14.41892
15.24037
15.993623
16.670911
17.291202
17.841249
18.343834
18.770431
19.171552
19.526175
19.825643
20.105167
20.353257
20.566707
20.7397
20.881344
20.999653
21.100139
21.185944
21.25866
21.3193
21.369302
21.410764
21.445385
21.47346
21.49295
21.50218
21.504186
21.503859
21.503334
21.503028
21.503199
21.504071
21.50588
21.508925
21.513482
21.519848
21.528082
21.537495
21.547678
21.558861
21.571531
21.58552
21.600345
21.61589
21.631893
21.647982
21.66255
21.672647
21.67703
21.676847
21.672786
21.664491
21.650779
21.630073
21.601477
21.564629
21.5184
21.463033
21.408133
21.370056
21.353325
21.349464
21.349465
21.349668
21.349688
5.035709
5.5730892
6.4613643
7.548925
8.7334817
9.940964
11.125771
12.261506
13.330688
14.310305
15.189626
15.981895
16.699623
17.346605
17.926124
18.438323
18.892391
19.296958
19.655825
19.968827
20.253524
20.512876
20.73721
20.920391
21.070628
21.196241
21.302717
21.393192
21.469424
21.532764
21.584805
21.62733
21.661777
21.688697
21.705674
21.712234
21.714162
21.715599
21.716943
21.718378
21.720084
21.722179
21.724874
21.72851
21.73341
21.739759
21.747516
21.756501
21.766564
21.777578
21.789399
21.801771
21.814329
21.826599
21.838131
21.848535
21.856382
21.860149
21.860308
21.857683
21.852066
21.842762
21.828796
21.808939
21.78188
21.746584
21.701766
21.648444
21.595546
21.559419
21.543197
21.539592
21.539581
21.539703
21.539683
4.3476721
4.9089613
5.8248283
6.9563605
8.1973702
9.4686225
10.719911
11.927033
13.073009
14.137094
15.096848
15.952772
16.725644
17.417167
18.037687
18.584767
19.075664
19.500968
19.882679
20.219236
20.521886
20.796953
21.034659
21.22962
21.389559
21.52307
21.635909
21.731415
21.811622
21.878155
21.932674
21.976849
22.012123
22.039092
22.056171
22.064027
22.06809
22.071669
22.074954
22.078121
22.081499
22.085484
22.090312
22.096003
22.102493
22.109748
22.117832
22.1268
22.136557
22.146856
22.157361
22.167699
22.177529
22.186583
22.194643
22.20075
22.2038
22.204085
22.202261
22.19822
22.191401
22.181003
22.166005
22.145265
22.117747
22.082627
22.03867
21.987263
21.937826
21.904764
21.89015
21.88702
21.886971
21.887053
21.886997
3.5330103
4.1296142
5.0899635
6.2786876
7.5878447
8.9348305
10.264124
11.550874
12.775247
13.923207
14.972545
15.909424
16.748908
17.499818
18.170519
18.764833
19.292417
19.759763
20.178724
20.546191
20.873057
21.168006
21.422445
21.631947
21.804006
21.94743
22.068282
22.17017
22.255404
22.325834
22.383241
22.429438
22.466093
22.493621
22.510866
22.519618
22.525156
22.530225
22.535
22.539636
22.544378
22.549486
22.555156
22.561508
22.568591
22.576399
22.584868
22.593881
22.603258
22.612766
22.622135
22.63108
22.639354
22.646616
22.651809
22.65424
22.654628
22.653529
22.650702
22.645687
22.637886
22.626505
22.610537
22.588871
22.560543
22.524865
22.480719
22.429875
22.382294
22.351323
22.338002
22.335229
22.335187
22.335233
22.335145
2.6677566
3.3002019
4.3110287
5.5599278
6.9384903
8.3643048
9.7791553
11.15197
12.460238
13.689765
14.82709
15.855027
16.771643
17.592035
18.323112
18.970875
19.545548
20.062264
20.524403
20.92806
21.284634
21.604271
21.879647
22.107325
22.294822
22.451179
22.582786
22.693563
22.786098
22.862468
22.924671
22.974838
23.015069
23.046137
23.066873
23.078831
23.08723
23.094895
23.102023
23.108793
23.115457
23.122251
23.129343
23.136831
23.144745
23.153068
23.161735
23.170628
23.179567
23.188308
23.196571
23.204143
23.210313
23.214245
23.216242
23.21698
23.216519
23.214583
23.210816
23.204787
23.195925
23.183465
23.166443
23.143834
23.114801
23.078754
23.034527
22.984178
22.938242
22.90914
22.896961
22.894503
22.89446
22.89447
22.894355
1.8025144
2.465424
3.524485
4.8308921
6.2752427
7.7775647
9.2808389
10.743034
12.138055
13.447177
14.670776
15.791748
16.793202
17.691206
18.491264
19.201701
19.834177
20.403502
20.912477
21.356121
21.747184
22.096297
22.39697
22.646688
22.853136
23.025581
23.170726
23.292809
23.394719
23.478818
23.547403
23.60297
23.648038
23.683917
23.709313
23.725065
23.736469
23.746839
23.756495
23.765565
23.774253
23.782795
23.791391
23.800183
23.809229
23.818515
23.827944
23.837314
23.846363
23.854903
23.862721
23.868894
23.872783
23.875121
23.876505
23.876793
23.875713
23.872986
23.868308
23.861295
23.851413
23.837929
23.819929
23.796462
23.766773
23.730329
23.685896
23.635799
23.59115
23.563526
23.552242
23.550014
23.549963
23.549938
23.549794
0.96041322
1.6476883
2.749519
4.1093617
5.6156145
7.1895655
8.7743734
10.323149
11.807029
13.203687
14.513763
15.723618
16.8163
17.798265
18.673596
19.452641
20.149372
20.776767
21.335955
21.823577
22.253285
22.63559
22.964656
23.238948
23.466522
23.656959
23.817313
23.952188
24.064827
24.157933
24.234136
24.296255
24.347197
24.389032
24.420859
24.442453
24.458232
24.472008
24.484656
24.496416
24.507489
24.518108
24.528484
24.538758
24.548978
24.559078
24.568884
24.578192
24.58689
24.594317
24.599703
24.603492
24.606388
24.608423
24.609376
24.609022
24.607156
24.603559
24.597953
24.589971
24.579103
24.564651
24.545747
24.521506
24.491254
24.454512
24.409962
24.360226
24.316991
24.290902
24.280521
24.278512
24.27845
24.278388
24.278215
0.1462716
0.85262634
1.9911326
3.3998756
4.9640757
6.6045435
8.2634902
9.8950975
11.467461
12.95703
14.354815
15.652906
16.839969
17.909197
18.865558
19.719665
20.484564
21.173092
21.786449
22.321484
22.793259
23.212012
23.572398
23.873889
24.125044
24.33578
24.513478
24.663081
24.788185
24.891859
24.977086
25.04697
25.104684
25.152797
25.19148
25.219986
25.240874
25.258193
25.273861
25.288312
25.301784
25.314516
25.326718
25.338503
25.349865
25.360715
25.371003
25.380703
25.388965
25.395046
25.399671
25.403522
25.406496
25.408357
25.408899
25.40795
25.405344
25.400896
25.394373
25.385443
25.373616
25.358219
25.338426
25.313417
25.282599
25.24554
25.20084
25.1514
25.109422
25.084675
25.075075
25.073246
25.073169
25.073071
25.072868
-0.64399244
0.076949746
1.2466175
2.6991418
4.3168103
6.0194031
7.7483981
9.4595713
11.120623
12.705651
14.193807
15.582387
16.864583
18.021617
19.061744
19.993389
20.830184
21.584001
22.254653
22.84052
23.357675
23.815844
24.21012
24.541032
24.817738
25.050526
25.247115
25.412823
25.551652
25.667086
25.762487
25.841238
25.906699
25.961831
26.008257
26.04519
26.072717
26.094445
26.113619
26.131257
26.147663
26.162986
26.177336
26.19074
26.203165
26.214645
26.224712
26.232769
26.239282
26.244946
26.24983
26.25375
26.256502
26.257916
26.257856
26.256194
26.252799
26.24751
26.240103
26.230253
26.217501
26.201215
26.180611
26.154917
26.123557
26.085955
26.041016
25.992355
25.952105
25.928842
25.920051
25.918405
25.918312
25.918177
25.917945
-1.4147383
-0.68201316
0.51391769
2.0043859
3.670907
5.4321247
7.2287148
9.0169949
10.764526
12.443833
14.022334
15.50223
16.880025
18.127466
19.255369
20.267888
21.17883
22.00051
22.731598
23.37114
23.936618
24.437143
24.86808
25.230998
25.535715
25.792897
26.010587
26.194448
26.348872
26.477755
26.584858
26.673861
26.748207
26.81088
26.864163
26.909116
26.945269
26.97332
26.996488
27.01727
27.036402
27.05403
27.070161
27.084942
27.098569
27.110533
27.120364
27.12872
27.136195
27.142735
27.148146
27.15225
27.1549
27.155981
27.155396
27.153052
27.148843
27.142643
27.134276
27.123465
27.109763
27.092554
27.071107
27.044707
27.012772
26.974512
26.929242
26.88141
26.84285
26.820955
26.812884
26.811396
26.811285
26.811114
26.810855
-2.1679103
-1.4245869
-0.20703572
1.3138065
3.0243602
4.8406283
6.7019842
8.5639971
10.393622
12.163162
13.834577
15.40945
16.881612
18.223149
19.440227
20.535319
21.523049
22.415567
23.209585
23.905801
24.522671
25.068393
25.538594
25.935897
26.270805
26.554354
26.794907
26.998511
27.169995
27.313717
27.433848
27.534374
27.618879
27.690323
27.75104
27.802818
27.846838
27.883855
27.914475
27.93991
27.96199
27.981879
27.999714
28.01524
28.028626
28.040489
28.051193
28.060779
28.069186
28.076296
28.081976
28.086094
28.088543
28.089245
28.088134
28.085153
28.080238
28.073284
28.064106
28.052422
28.037829
28.019756
27.997518
27.970461
27.938007
27.899164
27.853682
27.806889
27.770223
27.749829
27.74252
27.741194
27.741065
27.740858
27.740572
-2.9018274
-2.1486103
-0.91338597
0.63215991
2.3788322
4.2462193
6.1691235
8.101385
10.008568
11.861169
13.628409
15.297054
16.862479
18.302019
19.610864
20.790789
21.856925
22.822211
23.681633
24.436962
25.107892
25.701545
26.213676
26.647941
27.015552
27.327923
27.593735
27.8194
28.010155
28.170761
28.305777
28.419485
28.515651
28.597361
28.667034
28.726522
28.77726
28.820468
28.857218
28.888461
28.915133
28.938135
28.958236
28.976014
28.991862
29.006036
29.018662
29.029757
29.039269
29.047112
29.053187
29.057404
29.059696
29.06003
29.058379
29.054712
29.048988
29.041142
29.031046
29.018442
29.002919
28.983934
28.960864
28.93312
28.900129
28.860704
28.815012
28.769224
28.734346
28.715362
28.708744
28.707561
28.707412
28.707172
28.706863
-3.612656
-2.8506806
-1.6013053
-0.035718851
1.7407758
3.6508059
5.6310571
7.6292963
9.6097013
11.543783
13.404267
15.165089
16.822329
18.362731
19.76285
21.028798
22.175336
23.21567
24.14237
24.959321
25.687023
26.331218
26.887809
27.361493
27.764153
28.107532
28.400594
28.650127
28.861824
29.040909
29.192334
29.320665
29.429835
29.523044
29.602832
29.671195
29.729717
29.77975
29.822506
29.859091
29.890528
29.917735
29.941491
29.962407
29.980922
29.997322
30.01176
30.024279
30.034847
30.043401
30.049874
30.054216
30.056408
30.05645
30.054354
30.050132
30.043771
30.035206
30.024298
30.010818
29.994409
29.974562
29.950706
29.922328
29.888871
29.848965
29.803218
29.758674
29.725796
29.708353
29.702458
29.701418
29.701249
29.700976
29.700646
-4.2952862
-3.5260701
-2.2660389
-0.6845842
1.1165718
3.062297
5.0908361
7.1509509
9.2008418
11.213382
13.161371
15.010802
16.75822
18.397535
19.891718
21.246084
22.474658
23.590815
24.586259
25.466704
26.253497
26.950723
27.554291
28.069897
28.510089
28.886934
29.209689
29.485506
29.720479
29.920229
30.090069
30.234821
30.358577
30.464684
30.555845
30.634222
30.701579
30.75942
30.809101
30.851867
30.888835
30.920983
30.949119
30.973877
30.995725
31.014958
31.031719
31.046054
31.05796
31.067418
31.074408
31.078941
31.081062
31.080814
31.078242
31.073387
31.066267
31.056868
31.045089
31.030702
31.013353
30.992578
30.967882
30.938826
30.904877
30.864495
30.818717
30.775407
30.744448
30.728468
30.723235
30.722322
30.722132
30.72183
30.721483
-4.9448986
-4.1705058
-2.9035298
-1.3103723
0.51074723
2.4862106
4.5553177
6.6680657
8.7831874
10.868665
12.896476
14.833893
16.671856
18.404932
19.994758
21.438679
22.751224
23.944095
25.009315
25.955352
26.803687
27.55638
28.209401
28.76945
29.249668
29.662363
30.017018
30.321127
30.581215
30.803364
30.993273
31.156019
31.295857
31.41627
31.520106
31.609682
31.686941
31.753562
31.811041
31.86073
31.903843
31.941431
31.974353
32.003277
32.028688
32.050908
32.070119
32.086411
32.09982
32.11037
32.118089
32.123035
32.125295
32.12496
32.122113
32.116835
32.109167
32.099084
32.086499
32.071239
32.052999
32.031351
32.005864
31.976192
31.941845
31.901115
31.855485
31.813658
31.784819
31.770404
31.765847
31.765057
31.764845
31.764515
31.764154
-5.5577025
-4.7805058
-3.5106213
-1.9100482
-0.073500057
1.9264194
4.0295927
6.1871982
8.3597895
10.50963
12.60974
14.635271
16.561265
18.383996
20.069509
21.603736
23.000681
24.270422
25.406423
26.41976
27.331846
28.14239
28.847331
29.454334
29.977102
30.428177
30.817296
31.15232
31.44016
31.687274
31.89967
32.082622
32.24055
32.377118
32.495353
32.597749
32.686422
32.763219
32.829792
32.887621
32.938009
32.982062
33.020685
33.054585
33.084272
33.11007
33.132178
33.150719
33.16579
33.177477
33.185888
33.191162
33.193444
33.19287
33.189576
33.183672
33.17525
33.164343
33.150876
33.134669
33.115441
33.09283
33.066482
33.036069
33.000926
32.959646
32.914571
32.874583
32.847855
32.834934
32.830997
32.830314
32.83008
32.829725
32.829353
-6.1319195
-5.354645
-4.0861969
-2.4827142
-0.63537714
1.3839341
3.5153374
5.7105171
7.930481
10.139598
12.307753
14.413735
16.427968
18.336586
20.114416
21.737405
23.219416
24.566549
25.774378
26.857305
27.835667
28.706516
29.465936
30.122589
30.690658
31.182814
31.608954
31.977224
32.294943
32.569003
32.805738
33.010642
33.188321
33.342605
33.476672
33.593182
33.694423
33.782413
33.858958
33.925684
33.984003
34.035081
34.079874
34.119131
34.153392
34.183032
34.208307
34.229401
34.246471
34.259662
34.269151
34.275149
34.277847
34.277422
34.274044
34.267855
34.258942
34.247343
34.23304
34.215918
34.195748
34.172235
34.145094
34.113983
34.07793
34.036075
33.991928
33.954201
33.929783
33.918416
33.915095
33.914512
33.914255
33.913879
33.9135
-6.6681644
-5.8937245
-4.631293
-3.0295379
-1.1761599
0.8575591
3.0118145
5.2383206
7.4984168
9.7591111
11.991489
14.168514
16.268951
18.260186
20.125812
21.836574
23.4028
24.827171
26.107985
27.262532
28.30952
29.243107
30.059521
30.768401
31.384353
31.920176
32.385972
32.79023
33.140675
33.444574
33.708495
33.938059
34.138022
34.312412
34.464589
34.597399
34.713313
34.814521
34.902972
34.980367
35.048181
35.107668
35.159842
35.20548
35.245152
35.279268
35.308137
35.332026
35.351181
35.365847
35.376291
35.382783
35.385576
35.384915
35.381033
35.374141
35.364401
35.351892
35.336603
35.318432
35.297188
35.272656
35.244636
35.212784
35.175857
35.133535
35.090456
35.055082
35.032984
35.023118
35.020357
35.019856
35.019575
35.019179
35.018796
-7.1699743
-6.4014932
-5.1497735
-3.5544636
-1.6999364
0.34311176
2.5149738
4.7672229
7.0615923
9.367338
11.65692
13.900957
16.07895
18.152948
20.100659
21.897628
23.547478
25.04945
26.404713
27.633683
28.752062
29.750967
30.627108
31.391151
32.058036
32.640589
33.149019
33.592042
33.97775
34.313759
34.606881
34.862961
35.08695
35.283032
35.45473
35.605065
35.736678
35.851914
35.952892
36.041471
36.119226
36.187508
36.247413
36.299757
36.345156
36.384088
36.416941
36.444049
36.465717
36.482283
36.49413
36.501608
36.505038
36.504726
36.500937
36.493871
36.483677
36.470463
36.454273
36.435065
36.412728
36.387147
36.358238
36.325673
36.287914
36.245235
36.203507
36.170809
36.151223
36.142907
36.140693
36.140265
36.139964
36.139558
36.139179
-7.6438773
-6.8845641
-5.6482512
-4.0640477
-2.2133061
-0.16606323
2.0182761
4.2912426
6.6149355
8.9600489
11.300083
13.606142
15.852373
18.007101
20.034512
21.916116
23.64773
25.22717
26.658572
27.964407
29.156629
30.223336
31.161809
31.983682
32.70414
33.336008
33.889664
34.374183
34.79807
35.169271
35.494789
35.78057
36.0317
36.252542
36.446794
36.617648
36.767932
36.900172
37.016567
37.119028
37.209206
37.288478
37.357951
37.418489
37.470768
37.515335
37.552683
37.583284
37.607603
37.626115
37.639284
37.647515
37.651179
37.650639
37.646238
37.638313
37.627133
37.612842
37.5955
37.575107
37.551609
37.524967
37.495147
37.461716
37.423124
37.380485
37.340517
37.310626
37.293507
37.286621
37.28487
37.284489
37.284163
37.283744
37.283367
-8.0994423
-7.3525997
-6.1362752
-4.5677288
-2.7257213
-0.67950801
1.5121397
3.8009162
6.1491418
8.5283831
10.913376
13.275289
15.584865
17.814479
19.921645
21.88601
23.699252
25.357077
26.866915
28.252995
29.522075
30.659394
31.663252
32.546285
33.323805
34.008553
34.610958
35.140338
35.605522
36.014634
36.374807
36.692217
36.97217
37.219172
37.437091
37.629304
37.798784
37.948184
38.079873
38.195912
38.298094
38.387927
38.466602
38.535065
38.59408
38.644295
38.686298
38.72063
38.747844
38.768524
38.783218
38.792434
38.796674
38.796399
38.791991
38.783729
38.77186
38.756599
38.738074
38.716338
38.691451
38.66352
38.632533
38.597689
38.558062
38.516238
38.478984
38.45247
38.438123
38.432744
38.431452
38.431118
38.430778
38.430365
38.430005
-8.5488532
-7.8178072
-6.6258626
-5.0773458
-3.2489683
-1.2090409
0.98471589
3.2844371
5.6525306
8.0609643
10.485634
12.898203
15.267144
17.56554
19.752803
21.799273
23.692937
25.429738
27.02073
28.489906
29.838312
31.048852
32.120931
33.067997
33.905342
34.645561
35.299191
35.875956
36.385114
36.835066
37.233127
37.585602
37.89792
38.174728
38.420056
38.63745
38.830097
39.000796
39.151959
39.285701
39.403809
39.507732
39.598641
39.677518
39.745217
39.802522
39.85018
39.888916
39.919484
39.942643
39.959066
39.969359
39.974078
39.973723
39.968793
39.959731
39.946843
39.93037
39.910533
39.887512
39.861474
39.832584
39.800737
39.764577
39.723914
39.683093
39.648702
39.625406
39.613492
39.609307
39.608328
39.608001
39.607636
39.607219
39.606868
-9.0063123
-8.2944921
-7.1310885
-5.6068407
-3.7969827
-1.768701
0.42177711
2.7272939
5.110251
7.5427519
10.001938
12.46089
14.887086
17.252501
19.519347
21.646644
23.621031
25.439057
27.114722
28.670933
30.102096
31.389278
32.53339
33.548618
34.450094
35.25023
35.959599
36.588139
37.145287
37.639496
38.078146
38.467726
38.813903
39.121523
39.394811
39.637486
39.852791
40.043611
40.212532
40.361833
40.493465
40.609046
40.709915
40.797199
40.87189
40.934906
40.9871
41.029339
41.062534
41.087514
41.105004
41.11569
41.120222
41.119198
41.113156
41.102604
41.088014
41.069734
41.048011
41.023087
40.995271
40.964875
40.93177
40.894584
40.854062
40.815724
40.785706
40.766936
40.758201
40.755438
40.754799
40.754491
40.754128
40.753738
40.753421
-9.4906513
-8.7997049
-7.6670804
-6.1697709
-4.3820481
-2.3697519
-0.1871868
2.1194654
4.5126288
6.9643404
9.4529831
11.953942
14.434932
16.865209
19.209
21.414845
23.468818
25.368793
27.131338
28.776229
30.291548
31.657269
32.875709
33.961469
34.929289
35.791261
36.558052
37.239925
37.846592
38.386791
38.868191
39.29749
39.680461
40.022046
40.326588
40.598009
40.839807
41.055062
41.246494
41.416385
41.566553
41.698491
41.813472
41.912664
41.997195
42.068173
42.126689
42.173865
42.210795
42.238435
42.257704
42.269533
42.274782
42.274161
42.268212
42.257375
42.242064
42.222696
42.199678
42.173432
42.144442
42.113073
42.07874
42.040605
42.000791
41.9646
41.937278
41.921102
41.914152
41.912149
41.911655
41.911336
41.910975
41.910603
41.910285
-10.015778
-9.3454236
-8.2439124
-6.774939
-5.01207
-3.0194922
-0.84916412
1.4539636
3.8524777
6.3183039
8.8310995
11.369313
13.901707
16.393876
18.80863
21.091065
23.22497
25.207181
27.057074
28.791938
30.393458
31.840517
33.136798
34.297146
35.335802
36.264504
37.093936
37.834391
38.495488
39.085882
39.613229
40.084332
40.5052
40.881105
41.216698
41.51607
41.78284
42.020178
42.230824
42.417174
42.581309
42.725042
42.849979
42.957576
43.049185
43.126049
43.189371
43.240392
43.280359
43.310442
43.331689
43.345011
43.351214
43.351043
43.345147
43.334058
43.318257
43.298246
43.274579
43.24788
43.218708
43.186692
43.150843
43.112508
43.075428
43.042917
43.019045
43.005001
42.998941
42.997115
42.996495
42.996026
42.995543
42.99506
42.994602
-10.585172
-9.9359174
-8.8661788
-7.4275535
-5.6929541
-3.7245919
-1.5717332
0.72213019
3.1200091
5.5937494
8.1240912
10.693138
13.27118
15.819706
18.297745
20.652321
22.861479
24.922557
26.857905
28.680882
30.367513
31.89635
33.271875
34.508566
35.619862
36.616958
37.510371
38.3104
39.026716
39.668181
40.24281
40.757696
41.218973
41.631924
42.001223
42.331097
42.625421
42.887719
43.121028
43.327814
43.510081
43.669523
43.807678
43.926069
44.026275
44.109909
44.178666
44.234233
44.278031
44.311221
44.334858
44.349851
44.356946
44.356799
44.350083
44.337522
44.319868
44.297884
44.272275
44.243651
44.211709
44.177335
44.142987
44.109375
44.076639
44.046871
44.023642
44.009317
44.002772
44.000585
43.999768
43.999133
43.998482
43.997829
43.997213
-11.200045
-10.572553
-9.5352046
-8.1290883
-6.426371
-4.4869941
-2.3573017
-0.079200556
2.3110078
4.785208
7.3249821
9.9160548
12.531476
15.128685
17.663444
20.08409
22.364104
24.499344
26.516207
28.425901
30.198641
31.811887
33.270643
34.58892
35.779242
36.852129
37.81765
38.685642
39.465346
40.165222
40.792958
41.355508
41.859123
42.309467
42.711671
43.070383
43.389695
43.673093
43.923583
44.143851
44.336384
44.503524
44.647519
44.770536
44.874615
44.961578
45.033019
45.090445
45.135294
45.168847
45.192169
45.206153
45.211605
45.209336
45.20021
45.18519
45.165424
45.142278
45.116515
45.0886
45.059752
45.030613
45.001169
44.971392
44.941686
44.913996
44.89177
44.877639
44.870913
44.868493
44.867495
44.866703
44.865896
44.865083
44.864305
-11.860718
-11.255625
-10.251221
-8.8797662
-7.2125447
-5.3069751
-3.2063252
-0.9508658
1.4240186
3.8903549
6.430226
9.0324214
11.674241
14.309801
16.892738
19.369164
21.708603
23.909092
26.001816
27.993287
29.84814
31.543693
33.08513
34.485415
35.755785
36.905802
37.944808
38.88206
39.726444
40.486426
41.169961
41.784232
42.335543
42.829493
43.271134
43.665131
44.015872
44.327412
44.603332
44.846645
45.059841
45.245112
45.404593
45.540505
45.65511
45.750562
45.828851
45.891734
45.940632
45.976664
46.000822
46.014143
46.017766
46.012922
46.001016
45.983754
45.962828
45.937971
45.909766
45.882021
45.856466
45.832068
45.807619
45.782162
45.755651
45.729847
45.708279
45.694017
45.686921
45.684231
45.683096
45.682209
45.681308
45.680393
45.679515
-12.566332
-11.984494
-11.013596
-9.6791103
-8.0511002
-6.1842358
-4.1186261
-1.8928305
0.45875768
2.9082421
5.437952
8.0388693
10.693822
13.354842
15.974755
18.49681
20.887654
23.145298
25.30683
27.376165
29.312218
31.091116
32.718199
34.205672
35.56359
36.800416
37.924419
38.943755
39.866322
40.699608
41.450584
42.125825
42.731584
43.273702
43.757687
44.188685
44.571283
44.909338
45.20614
45.464892
45.688996
45.881964
46.047213
46.187754
46.306037
46.404131
46.483907
46.547016
46.594886
46.628889
46.650448
46.660982
46.661936
46.654872
46.641479
46.622691
46.599112
46.573633
46.549735
46.528057
46.507664
46.487592
46.466754
46.44414
46.419612
46.394921
46.373721
46.359365
46.352028
46.349144
46.347884
46.3469
46.345904
46.344886
46.343895
-13.314685
-12.757284
-11.820584
-10.525681
-8.9408136
-7.1177022
-5.0933648
-2.9045314
-0.5844767
1.8389362
4.3477489
6.9341777
9.5868716
12.257563
14.89994
17.453771
19.880385
22.181191
24.401218
26.537837
28.544193
30.397183
32.102538
33.671293
35.112016
36.432002
37.638482
38.738613
39.7394
40.647694
41.470263
42.213262
42.882135
43.482351
44.019397
44.498368
44.923925
45.300673
45.6332
45.925528
46.18083
46.40177
46.59092
46.750978
46.884774
46.994984
47.0839
47.153483
47.205472
47.241537
47.263402
47.27296
47.2724
47.264313
47.25083
47.232486
47.211274
47.191119
47.173256
47.156848
47.141166
47.125363
47.108325
47.088939
47.066924
47.043911
47.023563
47.009452
47.002085
46.999143
46.997867
46.99688
46.995871
46.994831
46.993819
-14.102602
-13.571138
-12.669597
-11.417271
-9.8797649
-8.1056445
-6.1291283
-3.9849342
-1.7050592
0.68275045
3.159742
5.7181434
8.3515948
11.01375
13.660689
16.232258
18.683429
21.015272
23.281827
25.476123
27.5459
29.4683
31.249793
32.900988
34.429528
35.841636
37.143175
38.339789
39.437082
40.44021
41.353274
42.180864
42.928817
43.60256
44.206992
44.746862
45.227089
45.651978
46.024419
46.347225
46.624449
46.861036
47.061835
47.230924
47.37148
47.485962
47.576431
47.64499
47.694005
47.726096
47.744036
47.750703
47.748829
47.739291
47.722982
47.704343
47.687367
47.6725
47.659057
47.646487
47.634133
47.620991
47.605597
47.586194
47.562643
47.537651
47.515726
47.500683
47.492776
47.489539
47.488008
47.486807
47.485627
47.484429
47.483264
-14.926445
-14.42258
-13.557587
-12.351178
-10.865534
-9.1458023
-7.2239738
-5.1324687
-2.9018587
-0.55962928
1.8743967
4.3912715
6.9874593
9.6209428
12.251304
14.821995
17.27735
19.620602
21.915915
24.147283
26.257883
28.228397
30.066256
31.780931
33.378643
34.864673
36.244351
37.523132
38.706994
39.801962
40.811981
41.735768
42.572795
43.327197
44.004928
44.612246
45.154074
45.63738
46.073074
46.466553
46.815406
47.116722
47.371418
47.583099
47.75577
47.892937
47.998211
48.075557
48.129378
48.164242
48.184505
48.194172
48.197174
48.1969
48.194079
48.188017
48.180127
48.172241
48.16438
48.15591
48.146316
48.134944
48.120894
48.103684
48.083274
48.060958
48.040475
48.025889
48.01804
48.014689
48.013035
48.011666
48.010279
48.008869
48.007497
-15.782755
-15.308142
-14.481545
-13.324597
-11.895486
-10.235869
-8.37583
-6.3453921
-4.1735726
-1.8873757
0.49231791
2.9542745
5.4944602
8.0785694
10.668211
13.215684
15.660173
18.001212
20.305837
22.555143
24.692164
26.698889
28.583601
30.355063
32.019147
33.581354
35.046094
36.416406
37.694721
38.883705
39.987865
41.013819
41.965104
42.841544
43.640877
44.362119
45.010402
45.589788
46.093415
46.520925
46.888615
47.21215
47.49785
47.746043
47.956858
48.133168
48.279419
48.399884
48.498132
48.577261
48.640292
48.689453
48.7239
48.745091
48.75976
48.771361
48.779652
48.784761
48.787013
48.786526
48.782954
48.775569
48.763702
48.747376
48.728084
48.708977
48.69374
48.684492
48.680611
48.679784
48.679938
48.680114
48.680113
48.68001
48.679976
-16.668733
-16.224874
-15.438873
-14.334988
-12.967126
-11.373537
-9.5825016
-7.6216853
-5.518443
-3.2991095
-0.98566565
1.4080821
3.8731139
6.3873051
8.9103574
11.401647
13.810369
16.129213
18.409518
20.637469
22.764936
24.771927
26.667096
28.456455
30.144178
31.734377
33.230427
34.635136
35.951643
37.183596
38.334905
39.409911
40.412202
41.343454
42.204412
42.989808
43.686468
44.286641
44.800627
45.24768
45.639312
45.980241
46.274355
46.527012
46.744163
46.929985
47.086528
47.216561
47.324093
47.413581
47.489347
47.555013
47.612792
47.663716
47.708156
47.745947
47.777133
47.80194
47.820282
47.831877
47.836493
47.834223
47.825641
47.811162
47.791835
47.771898
47.757576
47.749932
47.746189
47.743166
47.739675
47.735723
47.731537
47.727154
47.722724
-17.58151
-17.167953
-16.423188
-15.374081
-14.070201
-12.546487
-10.829439
-8.9444501
-6.9171108
-4.7728517
-2.5345108
-0.2190406
2.158359
4.5845682
7.016959
9.4212771
11.76456
14.033657
16.254914
18.429447
20.520778
22.507057
24.389287
26.174237
27.868032
29.476369
31.005076
32.459901
33.846541
35.170184
36.434673
37.642453
38.794923
39.893467
40.940872
41.94043
42.89293
43.798146
44.65432
45.450878
46.174762
46.820532
47.390275
47.889879
48.325996
48.704853
49.033254
49.318578
49.567974
49.787481
49.981919
50.155207
50.310639
50.450964
50.578585
50.695449
50.80253
50.900044
50.987597
51.064016
51.128349
51.181179
51.222199
51.250681
51.26811
51.276467
51.279399
51.282456
51.289056
51.298673
51.309056
51.318851
51.328036
51.337047
51.345131
-18.568651
-18.181887
-17.477733
-16.484469
-15.247512
-13.798384
-12.161583
-10.360257
-8.4180243
-6.3590342
-4.2063635
-1.9801978
0.30105258
2.619029
4.935334
7.2183361
9.4398867
11.584561
13.678589
15.737435
17.728468
19.62395
21.419384
23.120222
24.732108
26.2588
27.702657
29.065018
30.346846
31.549471
32.674646
33.724464
34.701492
35.609456
36.453913
37.241756
37.978905
38.666051
39.300761
39.885219
40.424123
40.920402
41.375326
41.790075
42.1663
42.505975
42.811527
43.086026
43.333192
43.556917
43.760671
43.94749
44.119844
44.278991
44.425335
44.561132
44.69316
44.829905
44.973171
45.116909
45.255455
45.386864
45.510353
45.624195
45.724901
45.807405
45.86828
45.910655
45.943749
45.976074
46.01031
46.044914
46.078446
46.111262
46.141897
-19.616969
-19.25594
-18.594816
-17.66204
-16.498905
-15.133499
-13.588082
-11.883596
-10.041568
-8.0845244
-6.0352539
-3.9162172
-1.7490687
0.43968906
2.6154564
4.750135
6.8163024
8.8002928
10.735686
12.652345
14.520999
16.307136
18.000727
19.605355
21.126394
22.567913
23.933492
25.226716
26.451285
27.611344
28.711113
29.75418
30.74304
31.679409
32.565037
33.401555
34.188658
34.923674
35.605662
36.235904
36.816351
37.34845
37.833107
38.271224
38.664106
39.013495
39.321681
39.592065
39.829507
40.039568
40.22696
40.394947
40.547691
40.69406
40.844804
41.002997
41.162284
41.315565
41.459788
41.594355
41.719329
41.834842
41.940782
42.036087
42.117736
42.181128
42.22402
42.25116
42.272943
42.298224
42.328948
42.362029
42.394576
42.426385
42.456207
-20.664824
-20.331452
-19.717383
-18.85059
-17.768342
-16.495564
-15.052306
-13.457436
-11.730471
-9.8923268
-7.9652702
-5.9729559
-3.9400729
-1.8974444
0.12445321
2.1004121
4.0061814
5.8316673
7.615257
9.395671
11.147198
12.83066
14.430896
15.949111
17.389725
18.756232
20.051498
21.277725
22.436416
23.528906
24.556766
25.521843
26.426169
27.272132
28.062909
28.802191
29.49268
30.135045
30.72924
31.275921
31.776595
32.232956
32.646423
33.018303
33.350203
33.644275
33.903389
34.131342
34.332668
34.511735
34.673644
34.828317
34.988561
35.159211
35.333362
35.502258
35.662497
35.813815
35.956248
36.089774
36.214462
36.330549
36.438105
36.535794
36.619306
36.68234
36.722113
36.744512
36.762012