/*--------------------------------*- C++ -*----------------------------------*\
| =========                 |                                                 |
| \\      /  F ield         | OpenFOAM: The Open Source CFD Toolbox           |
|  \\    /   O peration     | Version:  2212                                  |
|   \\  /    A nd           | Website:  www.openfoam.com                      |
|    \\/     M anipulation  |                                                 |
\*---------------------------------------------------------------------------*/
FoamFile
{
    version     2.0;
    format      ascii;
    arch        "LSB;label=32;scalar=64";
    class       volVectorField;
    location    "0.5";
    object      U;
}
// * * * * * * * * * * * * * * * * * * * * * * * * * * * * * * * * * * * * * //

dimensions      [0 1 -1 0 0 0 0];

internalField   nonuniform List<vector> 
15300
(
(16.770247 0.0052747448 -2.4880451e-09)
(16.773601 0.014156413 -7.2730546e-09)
(16.777868 0.022979652 1.2196716e-08)
(16.781562 0.03035849 -2.714711e-09)
(16.784857 0.036427117 1.7370326e-08)
(16.787605 0.04136305 -4.0744721e-08)
(16.789109 0.04517066 3.983556e-08)
(16.787649 0.048028226 -2.5620505e-09)
(16.779733 0.049645435 -2.4932271e-09)
(16.76886 0.045473995 -1.6069965e-10)
(16.766898 0.041357264 7.7523539e-10)
(16.769011 0.040207675 -6.8194091e-10)
(16.772792 0.038790855 2.7148727e-10)
(16.769473 0.037778192 -1.6041414e-10)
(16.72838 0.036680004 -3.7330334e-11)
(16.613463 0.034690591 -5.404684e-11)
(16.445267 0.040134397 2.3359424e-12)
(16.222398 0.035733938 1.2188177e-12)
(15.951934 0.031171836 1.4345811e-13)
(15.721267 0.033895318 6.2828606e-15)
(15.675618 0.03112464 -1.9154868e-14)
(15.434269 0.02375874 -1.9060271e-14)
(15.156651 0.024136683 -1.2300357e-14)
(14.884424 0.022165376 -7.0033252e-15)
(14.622623 0.020321751 -3.8551117e-15)
(14.373029 0.018708865 -2.1375153e-15)
(14.138002 0.017174185 -1.1908276e-15)
(13.913872 0.015622202 -7.0107407e-16)
(13.697849 0.014173535 -4.313897e-16)
(13.489862 0.012905722 -2.5775468e-16)
(13.291257 0.011868044 -1.5668641e-16)
(13.104375 0.010963093 -9.6876771e-17)
(12.928548 0.0099817212 -5.6160519e-17)
(12.760685 0.0089007678 -1.7624083e-17)
(12.599062 0.0079811532 -4.9170014e-18)
(12.444056 0.0078219286 -1.0044927e-17)
(12.295011 0.0077580536 -1.8480419e-17)
(12.151044 0.0075199695 -1.6477777e-17)
(12.011656 0.0074841758 -7.3324826e-18)
(11.876031 0.0075414435 -3.1235845e-18)
(11.743379 0.0076841766 1.1594486e-18)
(11.613305 0.0078186541 5.9593348e-18)
(11.485134 0.0078985248 3.3850285e-18)
(11.358032 0.0079220297 1.3193225e-19)
(11.231363 0.0078704772 6.4840057e-19)
(11.104443 0.0078072103 -4.6610167e-20)
(10.976766 0.0076588215 -4.6316096e-18)
(10.847892 0.0072739681 -8.2205924e-18)
(10.71646 0.0067748221 -1.0999936e-17)
(10.581677 0.0061244484 -8.6175525e-18)
(10.441734 0.0054850645 -8.5440397e-18)
(10.296722 0.0045811568 -1.2577373e-17)
(10.144149 0.0036216217 -1.6051913e-17)
(9.9832544 0.0024429105 -1.9929286e-17)
(9.8112584 0.0011603513 -2.0503956e-17)
(9.6259088 -0.00018802706 -2.2040296e-17)
(9.4248608 -0.0021636054 -1.807224e-17)
(9.2051327 -0.0032760083 -1.2795461e-17)
(8.9601293 -0.0042718754 -8.3619252e-18)
(8.6819822 -0.0066536416 -3.7169431e-18)
(8.3612472 -0.0084690594 -3.0691772e-18)
(7.9941472 -0.0086554766 5.1640246e-19)
(7.6037005 -0.0083358805 6.0246757e-18)
(7.1811579 -0.0081568895 8.6558203e-18)
(6.7155291 -0.0079226393 1.2392557e-17)
(6.198646 -0.0076048984 1.2061933e-17)
(5.6205109 -0.0056692177 8.5345038e-18)
(4.9898616 -0.0025086828 5.334381e-18)
(4.3060482 -0.0014654634 3.962463e-18)
(3.5775201 -0.002458645 3.502305e-18)
(2.8440207 -0.0027517063 3.0001603e-18)
(2.1338776 -0.0016513141 2.5204805e-18)
(1.4686578 -0.00079505446 2.0720316e-18)
(0.84974329 -0.00056917319 1.6439778e-18)
(0.27588494 -0.00023321951 1.1638566e-18)
(16.784725 0.01577009 2.8671567e-08)
(16.782812 0.042365722 1.5589718e-08)
(16.781475 0.062757822 -2.0284667e-08)
(16.780474 0.078099317 -2.4056379e-08)
(16.779893 0.089683843 -4.4592994e-08)
(16.780036 0.097859391 -4.3279007e-09)
(16.78122 0.10229581 -9.3529189e-08)
(16.784738 0.10240633 5.2412689e-08)
(16.793379 0.10141548 -9.3947567e-09)
(16.805736 0.10776901 -4.6474591e-09)
(16.81114 0.11473183 3.0703411e-09)
(16.812753 0.11622685 -7.388494e-10)
(16.815431 0.11685992 -1.0328316e-10)
(16.810553 0.1172995 2.7808477e-10)
(16.767738 0.11856879 -5.1515672e-11)
(16.649542 0.11761 9.160524e-11)
(16.442099 0.10724931 -8.2568528e-12)
(16.21144 0.10348337 -3.0155643e-12)
(15.929691 0.093660261 -6.9169936e-13)
(15.731673 0.093714625 -2.5872141e-13)
(15.640893 0.085561839 -1.0662664e-13)
(15.419276 0.07442985 -3.7730691e-14)
(15.143298 0.071911753 -1.1384496e-14)
(14.869975 0.067105497 -2.9481387e-15)
(14.608054 0.062256874 -3.5226047e-16)
(14.359102 0.057919771 3.388736e-16)
(14.123478 0.053967601 4.6580499e-16)
(13.898563 0.050280135 4.3156876e-16)
(13.682282 0.046927016 3.1854429e-16)
(13.474701 0.043949629 2.0869159e-16)
(13.277079 0.041300933 1.4036248e-16)
(13.09021 0.038863676 7.6223662e-17)
(12.913311 0.036546043 4.2301738e-17)
(12.745218 0.034314202 2.8492754e-17)
(12.585563 0.032714898 3.4632013e-17)
(12.433361 0.031638061 3.1727336e-17)
(12.286477 0.030487068 1.8562257e-17)
(12.143893 0.029456299 8.0405228e-18)
(12.005213 0.028685951 9.0318246e-18)
(11.869864 0.028000937 1.4856296e-17)
(11.737179 0.027375687 2.1870898e-17)
(11.606511 0.026772402 2.498285e-17)
(11.477178 0.026168066 2.6263992e-17)
(11.34847 0.025529928 2.4233323e-17)
(11.21962 0.024870708 1.4374268e-17)
(11.089833 0.024124056 6.9348961e-18)
(10.958199 0.023298603 7.0654035e-18)
(10.823648 0.022489243 3.4800142e-18)
(10.685485 0.021526849 1.1461424e-18)
(10.542569 0.020489999 6.9112169e-19)
(10.394216 0.019224047 -1.4144016e-18)
(10.23848 0.017995677 -3.0682617e-18)
(10.074719 0.016588734 -2.139365e-19)
(9.901158 0.015115074 1.9000007e-18)
(9.7165961 0.013534142 3.5521371e-18)
(9.5193946 0.011782814 2.0280535e-18)
(9.3077431 0.010056315 1.5649001e-18)
(9.0790843 0.0086398638 -2.574145e-19)
(8.8298919 0.0071411769 -6.989859e-19)
(8.5569389 0.0055213909 -3.9718195e-18)
(8.2573853 0.0041647322 -2.9276266e-18)
(7.9275766 0.0029957867 2.5254341e-19)
(7.5606794 0.0022383198 2.7986801e-18)
(7.1520601 0.0016849319 5.0904585e-18)
(6.6961413 0.0012373933 7.0606893e-18)
(6.1865148 0.00069171038 8.6731421e-18)
(5.6180687 0.00078450404 1.001103e-17)
(4.9892639 0.0021244093 1.1383738e-17)
(4.303427 0.0021449924 1.3523836e-17)
(3.5764887 0.00029908786 1.2685136e-17)
(2.8408805 -0.00071032074 1.2449683e-17)
(2.130748 -0.00043928973 1.2389137e-17)
(1.4649425 -3.3200002e-05 1.1565519e-17)
(0.84707021 4.0911569e-05 9.0010785e-18)
(0.27484202 1.188021e-05 3.3094285e-18)
(16.816676 0.023200429 -1.3625197e-08)
(16.821389 0.06906533 4.3461148e-08)
(16.823042 0.10577926 -4.3789156e-08)
(16.82321 0.13476033 2.395955e-08)
(16.822245 0.15753517 -4.1762676e-08)
(16.820459 0.17498989 1.9438343e-07)
(16.817297 0.18762289 -9.9154005e-08)
(16.810421 0.19575039 -3.9297391e-08)
(16.795963 0.19947062 2.5261863e-08)
(16.7789 0.1968231 4.7153615e-09)
(16.772385 0.19374499 -7.9480006e-09)
(16.771427 0.19190986 5.0192315e-09)
(16.771899 0.18936941 -1.802483e-09)
(16.765462 0.18618019 4.3501907e-10)
(16.720789 0.18266334 -1.1655523e-10)
(16.602205 0.1761781 -8.8798416e-11)
(16.425787 0.17609873 7.6684409e-11)
(16.185655 0.1631051 -1.0301961e-11)
(15.901079 0.151031 -1.5408725e-12)
(15.721366 0.14844632 -3.6277083e-13)
(15.604054 0.13701562 -9.6783323e-14)
(15.388393 0.12382238 -1.9662384e-14)
(15.115695 0.11808046 -6.4041014e-16)
(14.841695 0.11087256 2.4941423e-15)
(14.579307 0.10346275 2.1962039e-15)
(14.330322 0.096612739 1.4153976e-15)
(14.094163 0.090301426 7.8964541e-16)
(13.868688 0.084435094 4.3410691e-16)
(13.652418 0.07903916 2.4351111e-16)
(13.445447 0.074122485 1.1463282e-16)
(13.248552 0.069634587 4.6309915e-17)
(13.062045 0.065500446 1.0942653e-17)
(12.885619 0.061675275 -4.9239036e-20)
(12.719196 0.058029558 4.6515768e-18)
(12.562441 0.055489517 1.9121866e-17)
(12.412768 0.05318082 2.7183681e-17)
(12.267595 0.050635934 1.173627e-17)
(12.126298 0.048590752 -9.2245028e-18)
(11.988395 0.046755061 -1.658516e-17)
(11.853234 0.045046467 -1.8921226e-17)
(11.720156 0.043435306 -2.2547148e-17)
(11.588498 0.041898163 -1.7512158e-17)
(11.457637 0.040389139 -1.6595735e-17)
(11.326874 0.038882153 -1.6529391e-17)
(11.195423 0.037356049 -1.6835612e-17)
(11.062416 0.035795006 -1.7062165e-17)
(10.926884 0.034201874 -1.9156605e-17)
(10.787881 0.03256839 -2.0458909e-17)
(10.644439 0.03088519 -1.740088e-17)
(10.495557 0.029152042 -1.5807338e-17)
(10.34023 0.027366967 -1.3563685e-17)
(10.177414 0.025541938 -1.055207e-17)
(10.00606 0.023690847 -6.3638907e-18)
(9.8250372 0.021833801 -2.0687563e-18)
(9.6331031 0.01997446 -2.3329703e-18)
(9.4289906 0.017993505 -1.3766676e-18)
(9.2113045 0.0162649 -2.9726546e-19)
(8.9777686 0.01467023 4.0110138e-20)
(8.7255927 0.01289443 -1.929108e-18)
(8.4522428 0.011225526 -3.7310144e-18)
(8.1547644 0.0096765892 -7.1901021e-18)
(7.8292208 0.0082209689 -1.0658968e-17)
(7.4704127 0.0068639436 -1.3985982e-17)
(7.0714342 0.0056463956 -1.6975588e-17)
(6.6241965 0.0045816835 -1.528066e-17)
(6.121546 0.0034683948 -1.414739e-17)
(5.5587025 0.0032424898 -1.3405281e-17)
(4.9340601 0.0041034931 -1.2852862e-17)
(4.2522631 0.0034978473 -9.881005e-18)
(3.5308986 0.0011482448 -7.1023264e-18)
(2.8024543 -0.00022445139 -5.0533745e-18)
(2.1005376 -0.00011652542 -3.4951153e-18)
(1.4432674 0.0001103566 -2.2790758e-18)
(0.83400125 8.3232475e-05 -1.2878327e-18)
(0.27039472 1.6523999e-05 -4.1550742e-19)
(16.852972 0.031513761 -1.1112623e-07)
(16.849504 0.0890851 -8.0244787e-08)
(16.847128 0.13677401 6.003151e-08)
(16.842591 0.17431474 5.0800033e-08)
(16.836755 0.20341292 1.4613841e-07)
(16.830606 0.2249703 6.1192552e-08)
(16.824815 0.23948387 2.6952228e-07)
(16.820001 0.2468541 -9.8979758e-08)
(16.818523 0.24940071 -2.3211236e-09)
(16.820393 0.25457337 1.6193535e-08)
(16.818549 0.26127973 -5.529081e-09)
(16.814208 0.26301269 -1.7781096e-10)
(16.810894 0.2624081 1.3178011e-09)
(16.800407 0.26121498 -8.8219621e-10)
(16.750264 0.25945417 3.9560255e-10)
(16.625072 0.25509453 -2.2552985e-11)
(16.409042 0.23725381 -5.3108953e-11)
(16.157894 0.22148584 1.8088681e-11)
(15.871286 0.20734782 2.5522844e-12)
(15.699912 0.20254041 7.1814326e-13)
(15.564871 0.18845543 2.7418834e-13)
(15.34846 0.17317917 1.1093892e-13)
(15.077805 0.16408303 4.5964173e-14)
(14.803348 0.15424266 1.9538765e-14)
(14.540405 0.14423994 8.4359015e-15)
(14.291101 0.13485113 3.6776e-15)
(14.05439 0.12614616 1.5571616e-15)
(13.828392 0.11805926 6.0244913e-16)
(13.612004 0.11058326 2.0724079e-16)
(13.405277 0.10370454 3.4168173e-17)
(13.208683 0.097382587 -3.5216829e-17)
(13.022471 0.091569342 -5.2894638e-17)
(12.846732 0.086211195 -5.0166648e-17)
(12.681593 0.081296285 -4.0336292e-17)
(12.52609 0.077415879 -3.066243e-17)
(12.377128 0.073730574 -2.5370013e-17)
(12.232368 0.069988683 -2.1152564e-17)
(12.091148 0.066783659 -1.3558024e-17)
(11.952899 0.063834365 -7.4529323e-18)
(11.816954 0.061079431 3.1154291e-18)
(11.682652 0.058471785 1.0809971e-17)
(11.5493 0.055969549 1.1261457e-17)
(11.4161 0.053559726 1.5587444e-17)
(11.282261 0.051213323 1.6894618e-17)
(11.146981 0.048906523 1.3075963e-17)
(11.009448 0.046617784 9.6778693e-18)
(10.868866 0.044322842 7.6209385e-19)
(10.724348 0.042022408 -2.8336075e-18)
(10.575015 0.039721253 4.0288134e-18)
(10.41998 0.037422156 6.7682378e-18)
(10.258337 0.035129285 9.6188201e-18)
(10.089146 0.032852253 1.2829992e-17)
(9.911436 0.030595829 1.6647103e-17)
(9.7242086 0.028364336 1.7853226e-17)
(9.5264978 0.02607738 1.5355166e-17)
(9.3172269 0.023983297 1.4719414e-17)
(9.0945929 0.022017768 1.3844636e-17)
(8.8562555 0.019935813 1.3349841e-17)
(8.5999669 0.017909675 1.5372603e-17)
(8.323179 0.015972067 1.1297287e-17)
(8.0225788 0.014100465 5.3472567e-18)
(7.6938887 0.012290554 4.5638553e-18)
(7.3317539 0.010557536 8.4134699e-18)
(6.9297746 0.0089185991 1.2520664e-17)
(6.480884 0.0073606054 1.4102739e-17)
(5.9782165 0.0057360244 1.3113931e-17)
(5.4172852 0.0052073748 1.0983788e-17)
(4.7975398 0.0057041315 8.2234214e-18)
(4.1248773 0.0045017161 3.761268e-18)
(3.4178151 0.0017289611 -1.1096147e-18)
(2.7082636 0.00016781886 -2.0644263e-18)
(2.0275392 0.0001235755 -4.3164136e-19)
(1.3917643 0.00021398281 -1.1841911e-18)
(0.80349952 0.00011983793 -6.9794203e-19)
(0.26022543 2.1639832e-05 -1.7501607e-19)
(16.905568 0.038455081 3.2702985e-08)
(16.906507 0.11465809 -1.3705166e-07)
(16.903814 0.17719168 8.3643479e-08)
(16.898014 0.22785995 -1.6905415e-08)
(16.889769 0.26807167 4.721337e-08)
(16.879804 0.29896969 -2.933709e-07)
(16.867936 0.32163269 9.5545334e-08)
(16.852431 0.33756785 7.6093045e-08)
(16.829839 0.34689403 -4.7882272e-08)
(16.803887 0.34724182 -1.2547058e-08)
(16.785927 0.34235455 2.0925633e-08)
(16.775784 0.3379273 -1.3240721e-08)
(16.768956 0.33310423 4.5524656e-09)
(16.754924 0.32733496 -1.2716953e-09)
(16.700979 0.32007573 1.1237463e-10)
(16.571432 0.31015338 1.4623319e-11)
(16.382583 0.30329387 -8.8101341e-11)
(16.120207 0.27868551 1.4248468e-11)
(15.834714 0.26415673 2.3930878e-12)
(15.667759 0.25650499 6.6739479e-13)
(15.52001 0.23971277 2.3500152e-13)
(15.300568 0.22227016 8.1027368e-14)
(15.030839 0.2099201 2.5091993e-14)
(14.755907 0.19734269 6.1448393e-15)
(14.49212 0.18474385 2.9171354e-16)
(14.242038 0.17284692 -1.1946967e-15)
(14.004524 0.16177213 -1.2966259e-15)
(13.777906 0.15146851 -1.0455483e-15)
(13.561281 0.14190763 -7.5163641e-16)
(13.35464 0.13306798 -4.9869025e-16)
(13.158339 0.12492065 -3.1724809e-16)
(12.972731 0.11742261 -2.09527e-16)
(12.798124 0.11047917 -1.3038803e-16)
(12.634455 0.10423517 -7.7331516e-17)
(12.480101 0.098940951 -4.0242602e-17)
(12.331894 0.093824427 -1.6412003e-17)
(12.187686 0.088844038 -1.0040815e-17)
(12.046739 0.084417086 -1.0864414e-17)
(11.908406 0.080297575 -9.9125095e-18)
(11.771982 0.076423812 -6.2347739e-18)
(11.636757 0.072748617 -7.0199747e-18)
(11.501991 0.069233623 2.9732924e-18)
(11.366904 0.065849874 -1.524221e-18)
(11.230703 0.062572999 -1.9734356e-18)
(11.092587 0.059382592 -3.7022924e-18)
(10.951764 0.056265138 -6.2083786e-18)
(10.807438 0.053208484 -9.2198091e-18)
(10.658791 0.050204246 -1.1273114e-17)
(10.504984 0.047249124 -8.9574864e-18)
(10.345153 0.044340753 -2.2236147e-18)
(10.178426 0.041480435 3.6251967e-19)
(10.003928 0.038675487 1.9396725e-18)
(9.8208112 0.035909526 2.887196e-19)
(9.6282824 0.033147339 -2.8901984e-19)
(9.4253224 0.030631273 2.6773924e-18)
(9.2102497 0.028170811 4.8502352e-19)
(8.9811523 0.025603127 -2.3799843e-18)
(8.7363338 0.023151923 -4.5865189e-18)
(8.4737968 0.020782244 -4.9579349e-18)
(8.1909399 0.018484048 -2.5269854e-18)
(7.8844254 0.016255836 3.6695059e-19)
(7.5500369 0.01410699 2.9672249e-18)
(7.1825861 0.012060811 2.2368584e-18)
(6.7759732 0.010144005 -4.2128821e-21)
(6.323621 0.00834362 -4.7016467e-18)
(5.8197496 0.006486335 -9.4803255e-18)
(5.2611372 0.0059002061 -1.4421992e-17)
(4.6480369 0.0062071769 -1.8997814e-17)
(3.9868301 0.0046556704 -2.0038624e-17)
(3.2962504 0.0018175496 -2.0524322e-17)
(2.6073158 0.00029093946 -1.9665906e-17)
(1.9493221 0.00021929231 -1.5758075e-17)
(1.3365845 0.00025677038 -1.0944094e-17)
(0.77085471 0.00013218891 -6.5630604e-18)
(0.24936329 2.4641424e-05 -1.303413e-18)
(16.952954 0.045922018 2.0289721e-07)
(16.945505 0.13314755 1.5398912e-07)
(16.93756 0.20572597 -5.0448301e-08)
(16.925969 0.26436642 -9.075394e-09)
(16.911798 0.31040613 -3.0767952e-07)
(16.896301 0.34503702 -2.6972358e-07)
(16.880783 0.37038211 -2.8517553e-07)
(16.865642 0.38656244 -5.3170287e-09)
(16.853305 0.39534224 7.0871476e-08)
(16.844309 0.40237865 -2.8273172e-08)
(16.832279 0.40690639 -4.5483628e-10)
(16.819189 0.40801126 5.6661319e-09)
(16.807673 0.40671447 -3.5529323e-09)
(16.787638 0.40302851 1.7110788e-09)
(16.726348 0.39816907 -3.6998721e-10)
(16.587991 0.38798871 -7.0025707e-11)
(16.35856 0.36546219 1.2097918e-10)
(16.082543 0.33953823 -3.0330177e-11)
(15.798275 0.32297372 -2.3771445e-12)
(15.631799 0.31201799 -2.21213e-13)
(15.473151 0.29225853 -1.2609074e-14)
(15.248746 0.27233919 -9.1162223e-15)
(14.978358 0.25672274 -1.3332082e-14)
(14.702588 0.24121606 -1.1162961e-14)
(14.437785 0.22586582 -7.6005681e-15)
(14.186738 0.21133261 -4.7113432e-15)
(13.948296 0.19775962 -2.7823432e-15)
(13.720914 0.1851059 -1.6163027e-15)
(13.50381 0.17333565 -9.1639648e-16)
(13.296985 0.16242979 -4.8972259e-16)
(13.100805 0.15236813 -2.5290257e-16)
(12.915654 0.14310034 -1.4082286e-16)
(12.741701 0.13450192 -6.522221e-17)
(12.578481 0.12666088 -1.8496893e-17)
(12.424126 0.11985026 1.1626643e-17)
(12.275656 0.11330992 3.2126903e-17)
(12.130947 0.10695985 4.2138395e-17)
(11.989186 0.10123222 4.1255831e-17)
(11.84966 0.095881355 3.8169554e-17)
(11.711606 0.09083517 4.0309225e-17)
(11.574291 0.086049697 3.9237625e-17)
(11.436973 0.081487054 3.8870252e-17)
(11.298896 0.077116482 2.5492481e-17)
(11.159296 0.072912538 1.6472656e-17)
(11.017405 0.068854389 1.3923927e-17)
(10.872445 0.064924288 1.6204724e-17)
(10.723618 0.061106181 1.9630196e-17)
(10.570113 0.057388763 2.4681839e-17)
(10.411114 0.053762674 2.3127033e-17)
(10.245827 0.050228605 2.4698122e-17)
(10.073494 0.046792071 2.5033745e-17)
(9.8934513 0.043376853 2.4571439e-17)
(9.7050402 0.040160928 2.2669017e-17)
(9.5070928 0.037101753 2.1048999e-17)
(9.2980629 0.033992736 2.068563e-17)
(9.0765582 0.030949521 2.4266919e-17)
(8.8412461 0.028013214 2.4386064e-17)
(8.5905542 0.02517296 2.3701307e-17)
(8.3225244 0.0224295 2.1970575e-17)
(8.0346669 0.019788553 1.9541474e-17)
(7.723795 0.017257007 2.164474e-17)
(7.385884 0.014848088 2.1436386e-17)
(7.0159884 0.012589767 1.9941936e-17)
(6.6083191 0.010505542 1.6969535e-17)
(6.1567124 0.0085701948 1.6360423e-17)
(5.6559466 0.0065932013 1.9320741e-17)
(5.1033881 0.0060963507 2.0882834e-17)
(4.4995868 0.0063066432 2.2867262e-17)
(3.8512826 0.0045033786 2.5249832e-17)
(3.1776137 0.001744633 2.2963803e-17)
(2.5089783 0.00032758594 2.0651738e-17)
(1.8730456 0.00026392097 1.7994944e-17)
(1.2826458 0.00027180982 1.1925879e-17)
(0.73885722 0.00013424063 7.044169e-18)
(0.23868263 2.6983257e-05 2.2898459e-18)
(17.007645 0.052291501 5.351276e-09)
(17.004149 0.15678305 2.1738689e-07)
(16.995424 0.2431288 -8.2044546e-08)
(16.982443 0.31426415 4.8107867e-08)
(16.966003 0.37142474 -5.5647598e-10)
(16.946774 0.41585405 -1.4733993e-07)
(16.924936 0.44973766 1.4124594e-07)
(16.899462 0.4743366 -8.8041171e-08)
(16.867895 0.49080943 5.7189701e-08)
(16.833485 0.49641078 1.11044e-08)
(16.805256 0.49400783 -2.6260488e-08)
(16.782503 0.48700889 1.7758985e-08)
(16.764839 0.47824935 -6.0383596e-09)
(16.739968 0.46958671 1.5783654e-09)
(16.673074 0.45870698 -2.9592422e-10)
(16.529588 0.44698192 -1.5762357e-11)
(16.323129 0.43283131 5.7319158e-12)
(16.036933 0.40046794 9.413224e-13)
(15.755637 0.38298404 -1.7885367e-12)
(15.588813 0.36858179 -7.8507771e-13)
(15.420971 0.34586673 -3.386163e-13)
(15.191225 0.32340228 -1.4916218e-13)
(14.919412 0.30463508 -6.8214541e-14)
(14.642481 0.28620676 -3.2068952e-14)
(14.376308 0.26812837 -1.5332413e-14)
(14.123875 0.25100436 -7.3578944e-15)
(13.884155 0.23498122 -3.5100661e-15)
(13.655745 0.22002113 -1.6514292e-15)
(13.437964 0.20608464 -7.4203678e-16)
(13.230848 0.19315357 -2.6798984e-16)
(13.03477 0.18120836 -5.6705215e-17)
(12.850046 0.17018655 2.7769745e-17)
(12.676595 0.15995036 5.9516731e-17)
(12.513647 0.15045638 6.7494305e-17)
(12.359324 0.14214159 6.1024442e-17)
(12.210756 0.13421884 3.6481241e-17)
(12.065777 0.12646656 1.3300595e-17)
(11.923502 0.11940695 2.0263964e-18)
(11.783173 0.112792 -2.1606529e-20)
(11.643999 0.10654914 -4.299156e-18)
(11.50523 0.10062752 -7.9238115e-18)
(11.366126 0.0949879 -1.0609538e-17)
(11.225936 0.089596693 -1.3045694e-17)
(11.083892 0.084424062 -1.5183933e-17)
(10.939208 0.079445696 -2.2083852e-17)
(10.791074 0.074637257 -2.3926162e-17)
(10.638676 0.069981582 -2.2053042e-17)
(10.48123 0.065472748 -1.8079797e-17)
(10.317992 0.061111305 -1.4877997e-17)
(10.148296 0.056869428 -1.5629067e-17)
(9.9715774 0.052702796 -1.5148377e-17)
(9.7870816 0.048832586 -1.9795041e-17)
(9.5934841 0.045071753 -2.0731642e-17)
(9.3893723 0.041260891 -2.042893e-17)
(9.1737748 0.037602414 -1.9350888e-17)
(8.9457817 0.034069669 -2.2333579e-17)
(8.7043047 0.030662275 -2.3185921e-17)
(8.447976 0.027388818 -2.3418478e-17)
(8.1750065 0.024258117 -2.323779e-17)
(7.8830471 0.021276849 -2.2651954e-17)
(7.5690493 0.018452072 -2.1607131e-17)
(7.2291274 0.015796335 -2.027192e-17)
(6.858486 0.013333189 -1.9461609e-17)
(6.4515213 0.011080483 -2.1326168e-17)
(6.0023162 0.0090033394 -1.8889147e-17)
(5.5059921 0.0068882074 -1.7964809e-17)
(4.9602835 0.0064491928 -1.2266781e-17)
(4.3658551 0.0065414813 -7.3234206e-18)
(3.7297144 0.0044679636 -2.2422324e-18)
(3.0714308 0.0017463243 -3.0958654e-18)
(2.4209551 0.00039376105 -9.4448626e-19)
(1.8046622 0.00031852865 2.1735868e-18)
(1.2341863 0.00029316922 3.2477045e-18)
(0.71004846 0.00013919598 2.0015034e-18)
(0.22904355 2.968329e-05 7.1989946e-19)
(17.054049 0.059072897 -1.1139767e-07)
(17.043817 0.17416861 -5.0028531e-08)
(17.030614 0.27007464 -4.4680192e-08)
(17.012552 0.34895791 -1.1163404e-07)
(16.990853 0.4122461 4.647529e-07)
(16.966472 0.46124295 2.4669101e-07)
(16.940338 0.49777739 -3.8756423e-08)
(16.914063 0.52296652 2.2188048e-07)
(16.889959 0.53782648 -1.2238046e-07)
(16.869883 0.54894272 1.6230607e-08)
(16.847514 0.55523858 9.9786242e-09)
(16.824188 0.55462067 -7.8883553e-09)
(16.803943 0.55404662 2.8981774e-09)
(16.77196 0.54779573 -5.4797534e-10)
(16.696344 0.53986098 -1.342894e-10)
(16.540966 0.52404883 5.5292554e-10)
(16.292665 0.49808496 -2.5056762e-10)
(15.992193 0.4647205 3.5268293e-11)
(15.713586 0.44511619 1.8209029e-12)
(15.5442 0.42725337 -3.0335243e-13)
(15.367144 0.4015843 -2.8313424e-13)
(15.131021 0.37646775 -1.441551e-13)
(14.856649 0.35454938 -6.3088371e-14)
(14.578094 0.33308709 -2.592027e-14)
(14.31041 0.31213973 -1.0070061e-14)
(14.056547 0.29227726 -3.5314852e-15)
(13.815528 0.27364786 -9.5068654e-16)
(13.586043 0.25622235 1.6731343e-17)
(13.367501 0.23996662 2.9447274e-16)
(13.159985 0.22486557 3.1927706e-16)
(12.963855 0.2108981 2.8101028e-16)
(12.779291 0.19799876 2.1912071e-16)
(12.605898 0.1860283 1.6598538e-16)
(12.442612 0.17479202 1.3432294e-16)
(12.287539 0.16480263 1.0882902e-16)
(12.137935 0.15542865 8.9806366e-17)
(11.99175 0.14626837 6.5380427e-17)
(11.847981 0.13780949 5.4395974e-17)
(11.705848 0.12988825 4.4693675e-17)
(11.564541 0.12241767 3.0151846e-17)
(11.423284 0.1153383 2.8937851e-17)
(11.281315 0.10860505 3.1692989e-17)
(11.137864 0.10217933 3.5736857e-17)
(10.992144 0.096027265 3.8206674e-17)
(10.843365 0.090118966 3.2604365e-17)
(10.690751 0.084433553 3.1273724e-17)
(10.533576 0.078960233 3.1737746e-17)
(10.37117 0.073692356 3.3827854e-17)
(10.202975 0.068537565 3.5673223e-17)
(10.028447 0.063684439 3.6967692e-17)
(9.8465538 0.059050704 3.6896372e-17)
(9.6559967 0.054419249 3.2968012e-17)
(9.4557882 0.04992381 3.2697074e-17)
(9.2452041 0.04558193 3.3782691e-17)
(9.0235623 0.041389843 3.3969806e-17)
(8.7901144 0.037355178 3.3036747e-17)
(8.543916 0.033488626 3.2836612e-17)
(8.2836884 0.029802503 2.9755693e-17)
(8.0076809 0.026304168 2.8707402e-17)
(7.7135653 0.022996871 2.8411375e-17)
(7.3983394 0.019886301 2.4288857e-17)
(7.0582058 0.016981994 1.8625371e-17)
(6.6884966 0.01430582 1.7212957e-17)
(6.2837818 0.011871788 1.4144494e-17)
(5.8383835 0.0096302233 8.5837591e-18)
(5.3477756 0.0073488161 7.389018e-18)
(4.8100799 0.0069511401 5.6242246e-18)
(4.2260701 0.0068906973 3.409615e-18)
(3.6030639 0.004500608 5.1572358e-19)
(2.9611334 0.0017990063 -3.6314448e-18)
(2.3297481 0.00049562003 -2.4499693e-20)
(1.7339357 0.00039212506 1.6990436e-19)
(1.1841338 0.00032364965 2.1623175e-19)
(0.68032526 0.00014735821 1.9850936e-19)
(0.21910975 3.2622206e-05 7.3008095e-20)
(17.104929 0.064821792 -4.6516587e-08)
(17.098438 0.19558907 -7.1454094e-08)
(17.084833 0.30413891 7.2658334e-09)
(17.065591 0.39456146 -2.2096548e-07)
(17.041856 0.46834747 8.8712394e-08)
(17.014281 0.52698703 7.7542881e-07)
(16.983168 0.57248382 -3.6104214e-07)
(16.947939 0.60614252 1.3216583e-07)
(16.906844 0.62941496 -7.911357e-08)
(16.862883 0.64265937 1.7855225e-08)
(16.824432 0.64493558 6.7882554e-09)
(16.791013 0.63956121 -7.0849521e-09)
(16.75924 0.6271167 2.2431864e-09)
(16.721501 0.61595336 -7.1417693e-10)
(16.638825 0.60183206 1.3881824e-10)
(16.478135 0.58936168 -1.1747169e-10)
(16.249794 0.5679321 7.8192732e-11)
(15.941167 0.52940765 -1.9403739e-11)
(15.665904 0.50851469 -6.546519e-13)
(15.493906 0.48726986 -1.7677355e-13)
(15.308458 0.45868243 -1.6504908e-13)
(15.066114 0.43086457 -8.8034821e-14)
(14.788914 0.40582981 -3.3699621e-14)
(14.5085 0.3813408 -9.6005759e-15)
(14.239018 0.35754395 -9.6388694e-16)
(13.983376 0.33498654 1.4345603e-15)
(13.740731 0.31381098 1.7286144e-15)
(13.509911 0.29398945 1.4221642e-15)
(13.290421 0.27548663 1.0630091e-15)
(13.082377 0.25828156 7.3808545e-16)
(12.886086 0.2423441 4.830033e-16)
(12.701554 0.22760405 3.1253828e-16)
(12.528113 0.21391488 1.9981631e-16)
(12.364442 0.20106693 1.3570676e-16)
(12.208572 0.18930124 9.0520148e-17)
(12.058046 0.17842464 3.2757754e-17)
(11.911027 0.16794607 8.4674177e-19)
(11.766236 0.15802688 -8.7859238e-18)
(11.622826 0.14876023 -4.8690446e-18)
(11.479988 0.14001858 -2.6664309e-18)
(11.33692 0.13173189 -1.6076853e-17)
(11.19284 0.12384572 -2.5604749e-17)
(11.046958 0.11631747 -2.8288792e-17)
(10.898487 0.10911277 -2.4504496e-17)
(10.746662 0.10220566 -1.9264808e-17)
(10.590761 0.09558407 -1.6136196e-17)
(10.430125 0.089216809 -1.6079782e-17)
(10.2642 0.083020574 -2.4413705e-17)
(10.092309 0.077227609 -2.190475e-17)
(9.9132733 0.071647422 -1.4161979e-17)
(9.7258345 0.066076917 -6.7013518e-18)
(9.5292523 0.060716495 -2.5194223e-18)
(9.3230052 0.05554017 -2.1868312e-18)
(9.1065937 0.050547834 3.3194416e-18)
(8.8794934 0.045749619 3.8109144e-18)
(8.6410657 0.041161031 3.8596581e-18)
(8.390443 0.036793695 2.7088998e-18)
(8.1264343 0.0326558 4.0767546e-19)
(7.8474253 0.028752002 -2.6887308e-18)
(7.5512475 0.025084643 -6.5947309e-18)
(7.2350148 0.021656742 -1.0911352e-17)
(6.8949882 0.018473483 -1.0902911e-17)
(6.526549 0.015552286 -6.8313248e-18)
(6.124364 0.012901323 -8.2211119e-18)
(5.6829407 0.01045984 -1.0925449e-17)
(5.1980671 0.0079779181 -1.3358117e-17)
(4.6682133 0.0075829881 -1.4462413e-17)
(4.0942062 0.0073438283 -1.4298285e-17)
(3.4836599 0.0046164208 -1.2913022e-17)
(2.8571522 0.0019048856 -1.0538146e-17)
(2.2437103 0.00062507787 -7.6870871e-18)
(1.6671347 0.0004789747 -4.6345561e-18)
(1.1367893 0.00036097129 -3.1948435e-18)
(0.65216902 0.00015802415 -1.6648352e-18)
(0.20968449 3.5574374e-05 -1.1339833e-18)
(17.148556 0.070861071 -1.1133877e-07)
(17.136693 0.21150226 -1.4067167e-07)
(17.119558 0.32910694 5.8133949e-08)
(17.096056 0.42702305 -2.3185976e-08)
(17.06774 0.50698946 -2.4776654e-07)
(17.035621 0.57056738 4.0168642e-07)
(17.000645 0.61952676 7.2679653e-08)
(16.964063 0.65497002 -3.4365988e-08)
(16.92817 0.67793592 -2.3469226e-08)
(16.895574 0.69286233 1.7934239e-08)
(16.862376 0.7027122 3.1090967e-10)
(16.828476 0.70357735 -5.85714e-09)
(16.798613 0.70402867 3.7004881e-09)
(16.75349 0.69606849 -1.8565627e-09)
(16.66134 0.68586966 7.2881013e-10)
(16.485833 0.66595102 -2.3811917e-10)
(16.215126 0.6362782 1.3800064e-10)
(15.892181 0.59705693 -2.3656118e-11)
(15.619904 0.57405997 -1.7700746e-12)
(15.443716 0.54945485 -1.5877381e-13)
(15.249288 0.51799641 9.229821e-15)
(14.99987 0.48745943 2.8834601e-14)
(14.718961 0.45933192 2.603366e-14)
(14.436212 0.43178169 1.8974069e-14)
(14.164766 0.4050652 1.2487986e-14)
(13.907328 0.37971589 7.7559495e-15)
(13.663083 0.35587148 4.6621867e-15)
(13.430942 0.33351191 2.7415699e-15)
(13.210485 0.31260968 1.5708801e-15)
(13.001844 0.29314496 8.7626643e-16)
(12.805236 0.27508301 4.6379997e-16)
(12.620463 0.25834701 2.5338354e-16)
(12.446593 0.24279624 1.4594257e-16)
(12.282012 0.22824804 8.546493e-17)
(12.12468 0.21456653 3.7371197e-17)
(11.972482 0.20204934 8.5259996e-18)
(11.82361 0.19024569 -7.2989982e-18)
(11.676811 0.17885171 -7.3117185e-18)
(11.531163 0.16816966 6.4957935e-18)
(11.385786 0.15809627 1.6141474e-17)
(11.239813 0.1485553 2.1461144e-17)
(11.092428 0.13948218 2.0946222e-17)
(10.942851 0.13082871 1.3723088e-17)
(10.790337 0.12256526 2.1370694e-17)
(10.634192 0.11467267 2.6319614e-17)
(10.473842 0.10705226 2.2517041e-17)
(10.30876 0.099853655 1.9613859e-17)
(10.138003 0.092989271 1.8559046e-17)
(9.9603579 0.086247738 2.3141477e-17)
(9.7748423 0.079721546 2.7593124e-17)
(9.5808077 0.073415045 3.4199999e-17)
(9.3777939 0.067321753 3.3672174e-17)
(9.1654541 0.06144813 3.6913687e-17)
(8.9434692 0.055805878 3.5568235e-17)
(8.7114691 0.050409637 2.7465855e-17)
(8.4689379 0.045273683 2.5754359e-17)
(8.2151025 0.040406294 2.2424529e-17)
(7.9488283 0.035814417 2.3068563e-17)
(7.6684916 0.031500989 2.2055007e-17)
(7.3718536 0.027464284 2.5092028e-17)
(7.0559717 0.023699633 3.0536013e-17)
(6.7171381 0.020212457 3.2704065e-17)
(6.3508513 0.017018515 3.4941504e-17)
(5.9519556 0.014111708 3.7339167e-17)
(5.5152479 0.011411399 4.0169981e-17)
(5.0368684 0.0088783019 4.3542695e-17)
(4.5154987 0.0083499038 4.1936382e-17)
(3.9522366 0.0077602855 4.1392599e-17)
(3.3552984 0.0048254534 3.6630687e-17)
(2.7456109 0.0020606462 2.9225868e-17)
(2.1516356 0.00078481679 2.3436715e-17)
(1.595796 0.00058290306 1.974839e-17)
(1.0863161 0.00040594223 1.1633079e-17)
(0.62219757 0.00017107164 5.2285629e-18)
(0.19966771 3.8487983e-05 1.5486117e-18)
(17.196202 0.075950968 -6.1013657e-08)
(17.187787 0.23062171 -1.3567225e-07)
(17.170611 0.35982427 4.231089e-08)
(17.146327 0.46842004 9.8697037e-08)
(17.116318 0.55823469 -2.5895046e-07)
(17.081381 0.63101753 2.9154995e-08)
(17.041967 0.68877589 -2.1717741e-08)
(16.997555 0.7327834 -7.4998694e-08)
(16.946759 0.76447998 3.8651059e-08)
(16.892504 0.78584866 -2.3265634e-08)
(16.843405 0.79365252 1.5282113e-08)
(16.799078 0.79228144 -8.864962e-09)
(16.752935 0.77909756 3.2103498e-09)