/*--------------------------------*- C++ -*----------------------------------*\
| =========                 |                                                 |
| \\      /  F ield         | OpenFOAM: The Open Source CFD Toolbox           |
|  \\    /   O peration     | Version:  2212                                  |
|   \\  /    A nd           | Website:  www.openfoam.com                      |
|    \\/     M anipulation  |                                                 |
\*---------------------------------------------------------------------------*/
FoamFile
{
    version     2.0;
    format      ascii;
    arch        "LSB;label=32;scalar=64";
    class       volScalarField;
    location    "0";
    object      V;
}
// * * * * * * * * * * * * * * * * * * * * * * * * * * * * * * * * * * * * * //

dimensions      [0 3 0 0 0 0 0];

internalField   nonuniform List<scalar> 
15300
(
9.1114586e-06
7.9392585e-06
6.9603403e-06
6.1350658e-06
5.433439e-06
4.8324276e-06
4.3141129e-06
3.8643875e-06
3.472023e-06
3.1279932e-06
2.8249758e-06
2.55698e-06
2.3190662e-06
2.107132e-06
1.917747e-06
1.7480248e-06
1.5955225e-06
1.4581608e-06
1.334161e-06
1.2219943e-06
1.12034e-06
1.0280531e-06
9.4413639e-07
8.6771811e-07
7.9803355e-07
7.3440955e-07
6.7625166e-07
6.2303331e-07
5.7428677e-07
5.2959545e-07
4.8858732e-07
4.5092941e-07
4.1632299e-07
3.8449951e-07
3.5521704e-07
3.2825725e-07
3.0342272e-07
2.8053469e-07
2.5943098e-07
2.3996429e-07
2.2200065e-07
2.0541799e-07
1.9010504e-07
1.7596018e-07
1.6289056e-07
1.5081123e-07
1.396444e-07
1.2931878e-07
1.1976897e-07
1.1093495e-07
1.0276158e-07
9.5198182e-08
8.8198138e-08
8.1718548e-08
7.571991e-08
7.0165834e-08
6.502278e-08
6.0259821e-08
5.5848429e-08
5.1762277e-08
4.7977064e-08
4.4470348e-08
4.1221403e-08
3.8211073e-08
3.542166e-08
3.28368e-08
3.0441362e-08
2.8221355e-08
2.6163834e-08
2.4256824e-08
2.2489246e-08
2.0850843e-08
1.9332122e-08
1.7924297e-08
1.6619231e-08
8.3428872e-06
7.2766066e-06
6.3849223e-06
5.632251e-06
4.9916195e-06
4.4422834e-06
3.9680803e-06
3.5562675e-06
3.1966898e-06
2.8811736e-06
2.6030802e-06
2.3569726e-06
2.1383628e-06
1.9435198e-06
1.7693211e-06
1.6131369e-06
1.4727393e-06
1.3462309e-06
1.2319872e-06
1.1286107e-06
1.0348937e-06
9.4978811e-07
8.7238067e-07
8.0187261e-07
7.3756274e-07
6.788335e-07
6.251393e-07
5.7599655e-07
5.3097554e-07
4.8969335e-07
4.5180788e-07
4.1701285e-07
3.8503333e-07
3.5562209e-07
3.2855636e-07
3.0363499e-07
2.8067607e-07
2.5951483e-07
2.4000175e-07
2.2200099e-07
2.0538894e-07
1.9005301e-07
1.7589049e-07
1.6280761e-07
1.5071862e-07
1.395451e-07
1.292152e-07
1.1966307e-07
1.1082832e-07
1.0265548e-07
9.5093596e-08
8.8095843e-08
8.1619135e-08
7.5623817e-08
7.0073374e-08
6.4934165e-08
6.0175178e-08
5.5767819e-08
5.1685707e-08
4.7904498e-08
4.4401715e-08
4.1156606e-08
3.8149996e-08
3.5364172e-08
3.2782759e-08
3.0390622e-08
2.8173763e-08
2.6119237e-08
2.4215071e-08
2.2450184e-08
2.0814325e-08
1.9298006e-08
1.7892442e-08
1.6589504e-08
1.5381663e-08
7.6432901e-06
6.6730099e-06
5.8604572e-06
5.1736979e-06
4.5884813e-06
4.0861256e-06
3.6520524e-06
3.2747513e-06
2.9450362e-06
2.6555043e-06
2.4001356e-06
2.1739939e-06
1.9730005e-06
1.7937612e-06
1.6334322e-06
1.4896167e-06
1.3602821e-06
1.243696e-06
1.1383742e-06
1.0430385e-06
9.5658383e-07
8.780505e-07
8.0660163e-07
7.4150484e-07
6.8211686e-07
6.2787085e-07
5.7826569e-07
5.3285707e-07
4.9124992e-07
4.5309209e-07
4.1806882e-07
3.8589815e-07
3.5632693e-07
3.2912744e-07
3.0409437e-07
2.8104233e-07
2.5980358e-07
2.4022613e-07
2.2217206e-07
2.05516e-07
1.9014387e-07
1.7595171e-07
1.6284468e-07
1.5073615e-07
1.3954695e-07
1.2920458e-07
1.1964267e-07
1.1080036e-07
1.026218e-07
9.5055728e-08
8.8055037e-08
8.1576414e-08
7.5580017e-08
7.0029169e-08
6.4890093e-08
6.0131667e-08
5.5725202e-08
5.1644241e-08
4.7864374e-08
4.4363073e-08
4.1119539e-08
3.8114565e-08
3.5330407e-08
3.2750668e-08
3.0360191e-08
2.8144967e-08
2.6092039e-08
2.4189424e-08
2.2426035e-08
2.0791617e-08
1.9276677e-08
1.7872432e-08
1.6570748e-08
1.5364099e-08
1.4245512e-08
7.0068767e-06
6.1235544e-06
5.3827402e-06
4.7557822e-06
4.22088e-06
3.7612098e-06
3.3636216e-06
3.0177164e-06
2.7151833e-06
2.4493157e-06
2.2146529e-06
2.006712e-06
1.8217845e-06
1.656781e-06
1.5091109e-06
1.376588e-06
1.2573575e-06
1.1498364e-06
1.0526678e-06
9.6468218e-07
8.8486772e-07
8.1234496e-07
7.463466e-07
6.8620069e-07
6.3131671e-07
5.8117396e-07
5.3531192e-07
4.9332203e-07
4.5484086e-07
4.1954429e-07
3.8714248e-07
3.5737574e-07
3.3001078e-07
3.0483766e-07
2.8166707e-07
2.6032799e-07
2.4066563e-07
2.2253972e-07
2.058229e-07
1.9039941e-07
1.7616387e-07
1.6302022e-07
1.5088081e-07
1.3966559e-07
1.2930134e-07
1.1972104e-07
1.1086331e-07
1.0267185e-07
9.5095012e-08
8.8085354e-08
8.1599288e-08
7.5596736e-08
7.0040819e-08
6.4897592e-08
6.0135786e-08
5.5726589e-08
5.1643438e-08
4.7861837e-08
4.4359182e-08
4.111461e-08
3.810886e-08
3.5324142e-08
3.274402e-08
3.0353308e-08
2.8137967e-08
2.6085017e-08
2.4182456e-08
2.2419182e-08
2.0784925e-08
1.9270183e-08
1.7866161e-08
1.6564719e-08
1.5358324e-08
1.424e-08
1.3203287e-08
6.4283798e-06
5.6237679e-06
4.9479427e-06
4.3752018e-06
3.8859492e-06
3.4650337e-06
3.1005916e-06
2.7832262e-06
2.5054161e-06
2.2610833e-06
2.0452722e-06
1.8539097e-06
1.6836223e-06
1.5315965e-06
1.3954705e-06
1.2732497e-06
1.1632396e-06
1.0639934e-06
9.7426937e-07
8.9299683e-07
8.1924849e-07
7.5221793e-07
6.9120106e-07
6.355809e-07
5.848149e-07
5.384244e-07
4.9598581e-07
4.5712314e-07
4.2150179e-07
3.888232e-07
3.5882026e-07
3.3125356e-07
3.0590793e-07
2.8258969e-07
2.611241e-07
2.4135326e-07
2.2313424e-07
2.0633744e-07
1.9084517e-07
1.7655044e-07
1.6335581e-07
1.5117246e-07
1.3991932e-07
1.2952233e-07
1.1991373e-07
1.1103152e-07
1.0281887e-07
9.5223663e-08
8.8198072e-08
8.1698174e-08
7.5683599e-08
7.0117223e-08
6.4964886e-08
6.019514e-08
5.5779012e-08
5.1689806e-08
4.7902907e-08
4.4395613e-08
4.1146973e-08
3.8137652e-08
3.5349794e-08
3.276691e-08
3.0373762e-08
2.8156271e-08
2.6101421e-08
2.4197178e-08
2.2432414e-08
2.0796834e-08
1.9280916e-08
1.7875847e-08
1.6573472e-08
1.5366244e-08
1.4247174e-08
1.3209795e-08
1.2248115e-08
5.903012e-06
5.169583e-06
4.5525806e-06
4.0289509e-06
3.5810787e-06
3.195317e-06
2.8609604e-06
2.5695146e-06
2.3141702e-06
2.0894158e-06
1.8907521e-06
1.7144759e-06
1.5575164e-06
1.4173097e-06
1.2917012e-06
1.1788692e-06
1.077265e-06
9.855648e-07
9.0263152e-07
8.2748397e-07
7.5927167e-07
6.9725449e-07
6.4078575e-07
5.8929842e-07
5.4229355e-07
4.9933071e-07
4.600199e-07
4.2401479e-07
3.91007e-07
3.6072124e-07
3.3291113e-07
3.0735571e-07
2.8385635e-07
2.6223417e-07
2.4232774e-07
2.2399112e-07
2.0709218e-07
1.9151106e-07
1.7713892e-07
1.6387675e-07
1.5163437e-07
1.4032958e-07
1.298873e-07
1.2023895e-07
1.1132179e-07
1.0307835e-07
9.5455982e-08
8.8406397e-08
8.1885267e-08
7.5851874e-08
7.0268793e-08
6.5101604e-08
6.0318629e-08
5.5890704e-08
5.1790958e-08
4.799463e-08
4.4478886e-08
4.1222663e-08
3.8206527e-08
3.5412535e-08
3.2824122e-08
3.0425985e-08
2.8203984e-08
2.6145053e-08
2.4237112e-08
2.2468993e-08
2.0830366e-08
1.9311676e-08
1.7904085e-08
1.6599411e-08
1.5390086e-08
1.4269102e-08
1.3229972e-08
1.2266692e-08
1.1373699e-08
5.4264256e-06
4.7573044e-06
4.1934871e-06
3.7142956e-06
3.3038932e-06
2.9499843e-06
2.6429049e-06
2.374973e-06
2.1400198e-06
1.9330452e-06
1.7499607e-06
1.5873971e-06
1.4425568e-06
1.3131015e-06
1.1970636e-06
1.0927781e-06
9.9882791e-07
9.140007e-07
8.3725419e-07
7.6768824e-07
7.0452202e-07
6.4707548e-07
5.9475405e-07
5.4703603e-07
5.0346206e-07
4.6362642e-07
4.2716966e-07
3.9377239e-07
3.6315006e-07
3.3504857e-07
3.0924037e-07
2.8552132e-07
2.6370784e-07
2.4363451e-07
2.2515202e-07
2.0812534e-07
1.9243218e-07
1.7796156e-07
1.6461269e-07
1.5229385e-07
1.4092149e-07
1.3041942e-07
1.2071804e-07
1.1175378e-07
1.0346843e-07
9.5808723e-08
8.8725798e-08
8.2174854e-08
7.611476e-08
7.0507726e-08
6.5319016e-08
6.0516678e-08
5.6071303e-08
5.1955812e-08
4.8145253e-08
4.4616632e-08
4.1348743e-08
3.8322022e-08
3.5518417e-08
3.2921261e-08
3.0515165e-08
2.8285911e-08
2.6220362e-08
2.4306379e-08
2.2532737e-08
2.0889057e-08
1.9365742e-08
1.7953911e-08
1.664535e-08
1.5432458e-08
1.4308198e-08
1.3266058e-08
1.230001e-08
1.1404471e-08
1.0574273e-08
4.9946772e-06
4.3835783e-06
3.8677865e-06
3.4287525e-06
3.0522341e-06
2.7271486e-06
2.444767e-06
2.1981375e-06
1.9816676e-06
1.7908168e-06
1.6218671e-06
1.4717499e-06
1.3379143e-06
1.2182251e-06
1.1108837e-06
1.0143667e-06
9.2737581e-07
8.4879948e-07
7.7768121e-07
7.1319417e-07
6.5462058e-07
6.0133484e-07
5.5278956e-07
5.0850414e-07
4.6805511e-07
4.3106824e-07
3.9721179e-07
3.6619082e-07
3.3774245e-07
3.1163177e-07
2.876484e-07
2.6560343e-07
2.4532698e-07
2.2666588e-07
2.0948183e-07
1.9364973e-07
1.7905623e-07
1.6559846e-07
1.5318292e-07
1.4172455e-07
1.3114582e-07
1.2137602e-07
1.1235057e-07
1.0401041e-07
9.6301522e-08
8.9174399e-08
8.2583674e-08
7.6487717e-08
7.0848308e-08
6.5630329e-08
6.0801492e-08
5.6332097e-08
5.2194804e-08
4.8364434e-08
4.4817788e-08
4.1533481e-08
3.8491791e-08
3.5674523e-08
3.3064885e-08
3.0647375e-08
2.8407674e-08
2.6332557e-08
2.4409803e-08
2.2628114e-08
2.0977047e-08
1.9446946e-08
1.8028878e-08
1.671458e-08
1.5496409e-08
1.4367289e-08
1.3320672e-08
1.2350498e-08
1.1451155e-08
1.0617449e-08
9.844567e-09
4.6041945e-06
4.0453648e-06
3.5728714e-06
3.1700687e-06
2.8241424e-06
2.5250966e-06
2.2650408e-06
2.0376782e-06
1.8379341e-06
1.661681e-06
1.5055338e-06
1.3666946e-06
1.2428344e-06
1.1320009e-06
1.0325482e-06
9.4308001e-07
8.6240559e-07
7.895043e-07
7.2349703e-07
6.6362322e-07
6.0922208e-07
5.5971721e-07
5.1460392e-07
4.7343878e-07
4.3583083e-07
4.0143435e-07
3.6994268e-07
3.4108306e-07
3.1461223e-07
2.9031272e-07
2.6798964e-07
2.4746799e-07
2.2859026e-07
2.1121442e-07
1.9521217e-07
1.8046741e-07
1.6687492e-07
1.5433918e-07
1.4277335e-07
1.3209839e-07
1.2224226e-07
1.1313923e-07
1.0472924e-07
9.6957406e-08
8.9773454e-08
8.3131347e-08
7.6988868e-08
7.130728e-08
6.6051011e-08
6.1187373e-08
5.6686308e-08
5.2520163e-08
4.8663482e-08
4.5092816e-08
4.1786559e-08
3.8724793e-08
3.5889147e-08
3.3262672e-08
3.0829723e-08
2.8575857e-08
2.6487733e-08
2.4553028e-08
2.2760352e-08
2.1099179e-08
1.9559776e-08
1.8133142e-08
1.6810954e-08
1.5585509e-08
1.4449682e-08
1.3396878e-08
1.2420995e-08
1.1516383e-08
1.067781e-08
9.9004339e-09
9.1797695e-09
4.2517467e-06
3.7399138e-06
3.3063812e-06
2.9362037e-06
2.6178431e-06
2.3422754e-06
2.1023607e-06
1.892389e-06
1.7077495e-06
1.5446852e-06
1.4001098e-06
1.2714687e-06
1.1566317e-06
1.0538117e-06
9.6149951e-07
8.7841362e-07
8.0345998e-07
7.3569982e-07
6.7432382e-07
6.1863117e-07
5.6801247e-07
5.2193573e-07
4.7993479e-07
4.4159979e-07
4.0656915e-07
3.7452289e-07
3.4517705e-07
3.1827889e-07
2.9360292e-07
2.7094744e-07
2.5013161e-07
2.3099297e-07
2.1338524e-07
1.9717647e-07
1.8224742e-07
1.6849016e-07
1.5580683e-07
1.4410855e-07
1.3331454e-07
1.2335122e-07
1.1415151e-07
1.0565421e-07
9.7803391e-08
9.0547891e-08
8.3840883e-08
7.763946e-08
7.1904269e-08
6.6599198e-08
6.1691079e-08
5.714943e-08
5.2946217e-08
4.9055647e-08
4.5453972e-08
4.2119317e-08
3.9031521e-08
3.6172e-08
3.352361e-08
3.1070532e-08
2.8798164e-08
2.6693026e-08
2.4742664e-08
2.2935574e-08
2.1261123e-08
1.9709484e-08
1.8271571e-08
1.6938978e-08
1.5703934e-08
1.4559247e-08
1.3498264e-08
1.2514826e-08
1.1603235e-08
1.0758213e-08
9.9748753e-09
9.2486996e-09
8.575497e-09
3.934418e-06
3.4647416e-06
3.0661835e-06
2.7253137e-06
2.4317315e-06
2.1772806e-06
1.9554913e-06
1.7611782e-06
1.590145e-06
1.4389667e-06
1.3048244e-06
1.185381e-06
1.0786854e-06
9.8309789e-07
8.9723231e-07
8.1991017e-07
7.5012421e-07
6.8700929e-07
6.2981882e-07
5.779057e-07
5.3070679e-07
4.8773006e-07
4.4854407e-07
4.1276918e-07
3.8007027e-07
3.5015059e-07
3.2274664e-07
2.9762374e-07
2.7457241e-07
2.534052e-07
2.3395395e-07
2.1606752e-07
1.9960977e-07
1.8445786e-07
1.7050074e-07
1.5763785e-07
1.4577797e-07
1.3483827e-07
1.2474341e-07
1.1542475e-07
1.0681971e-07
9.8871188e-08
9.1526963e-08
8.4739282e-08
7.8464417e-08
7.2662293e-08
6.7296153e-08
6.233226e-08
5.7739622e-08
5.3489754e-08
4.9556455e-08
4.5915617e-08
4.2545039e-08
3.9424269e-08
3.6534459e-08
3.3858229e-08
3.1379547e-08
2.9083619e-08
2.6956789e-08
2.4986446e-08
2.3160942e-08
2.1469515e-08
1.9902218e-08
1.8449856e-08
1.7103929e-08
1.5856573e-08
1.4700514e-08
1.3629026e-08
1.263588e-08
1.1715315e-08
1.0861996e-08
1.0070987e-08
9.3377153e-09
8.6579482e-09
8.0277655e-09
3.6495834e-06
3.2176114e-06
2.8503569e-06
2.5357362e-06
2.2643604e-06
2.0288451e-06
1.8233178e-06
1.6430601e-06
1.4842461e-06
1.3437463e-06
1.2189809e-06
1.1078073e-06
1.0084341e-06
9.1935355e-07
8.3928962e-07
7.6715599e-07
7.0202315e-07
6.430919e-07
5.8967187e-07
5.4116417e-07
4.9704711e-07
4.5686455e-07
4.2021619e-07
3.8674956e-07
3.561533e-07
3.2815152e-07
3.0249909e-07
2.7897761e-07
2.57392e-07
2.3756759e-07
2.1934765e-07
2.0259123e-07
1.8717133e-07
1.7297329e-07
1.5989344e-07
1.4783786e-07
1.3672133e-07
1.2646645e-07
1.1700278e-07
1.0826615e-07
1.0019805e-07
9.2745022e-08
8.5858235e-08
7.949299e-08
7.3608356e-08
6.8166818e-08
6.3133958e-08
5.8478179e-08
5.4170456e-08
5.0184105e-08
4.649458e-08
4.3079291e-08
3.9917436e-08
3.6989848e-08
3.427886e-08
3.1768183e-08
2.9442788e-08
2.7288806e-08
2.5293433e-08
2.3444846e-08
2.1732123e-08
2.0145172e-08
1.8674666e-08
1.7311982e-08
1.6049146e-08
1.4878784e-08
1.3794075e-08
1.2788707e-08
1.1856841e-08
1.099307e-08
1.0192392e-08
9.4501741e-09
8.7621288e-09
8.1242845e-09
7.5329635e-09
3.3948866e-06
2.9965144e-06
2.6571752e-06
2.3659773e-06
2.1144286e-06
1.8958294e-06
1.7048369e-06
1.537148e-06
1.3892652e-06
1.2583224e-06
1.1419522e-06
1.0381851e-06
9.4537197e-07
8.6212282e-07
7.8725958e-07
7.197782e-07
6.5881856e-07
6.036403e-07
5.5360329e-07
5.0815165e-07
4.6680079e-07
4.2912663e-07
3.9475671e-07
3.6336287e-07
3.34655e-07
3.083759e-07
2.8429691e-07
2.6221417e-07
2.4194551e-07
2.2332772e-07
2.0621431e-07
1.9047346e-07
1.7598637e-07
1.6264573e-07
1.5035447e-07
1.3902463e-07
1.2857639e-07
1.189372e-07
1.1004104e-07
1.0182774e-07
9.4242426e-08
8.7234962e-08
8.075952e-08
7.4774159e-08
6.9240461e-08
6.4123205e-08
5.9390077e-08
5.5011407e-08
5.0959932e-08
4.7210589e-08
4.374032e-08
4.0527899e-08
3.755378e-08
3.4799952e-08
3.2249811e-08
2.9888047e-08
2.7700533e-08
2.5674232e-08
2.3797108e-08
2.2058044e-08
2.0446772e-08
1.8953802e-08
1.7570364e-08
1.628835e-08
1.510026e-08
1.399916e-08
1.2978635e-08
1.2032748e-08
1.1156007e-08
1.0343328e-08
9.5900046e-09
8.8916799e-09
8.24432e-09
7.6441895e-09
7.0878288e-09
3.1682209e-06
2.7996539e-06
2.4850937e-06
2.2146996e-06
1.980771e-06
1.7772128e-06
1.5991502e-06
1.442647e-06
1.3044967e-06
1.182066e-06
1.0731757e-06
9.7600987e-07
8.8904533e-07
8.1099657e-07
7.4077249e-07
6.7744204e-07
6.2020673e-07
5.6837851e-07
5.2136185e-07
4.7863917e-07
4.3975883e-07
4.0432528e-07
3.7199087e-07
3.4244905e-07
3.1542867e-07
2.9068915e-07
2.680165e-07
2.4721984e-07
2.2812849e-07
2.1058949e-07
1.9446545e-07
1.7963272e-07
1.6597979e-07
1.5340592e-07
1.4181994e-07
1.3113921e-07
1.2128872e-07
1.1220026e-07
1.0381176e-07
9.6066615e-08
8.8913204e-08
8.2304353e-08
7.6196927e-08
7.0551444e-08
6.5331731e-08
6.0504623e-08
5.6039683e-08
5.1908962e-08
4.8086778e-08
4.4549514e-08
4.127544e-08
3.8244554e-08
3.5438432e-08
3.2840096e-08
3.0433895e-08
2.8205392e-08
2.6141269e-08
2.4229232e-08
2.245793e-08
2.0816882e-08
1.9296402e-08
1.788754e-08
1.6582023e-08
1.5372204e-08
1.4251009e-08
1.3211897e-08
1.2248814e-08
1.1356162e-08
1.0528757e-08
9.761804e-09
9.0508623e-09
8.3918212e-09
7.7808745e-09
7.2144976e-09
6.6894264e-09
2.9677116e-06
2.6254303e-06
2.3327366e-06
2.0807117e-06
1.8623494e-06
1.6720852e-06
1.5054559e-06
1.3588479e-06
1.2293106e-06
1.1144155e-06
1.0121492e-06
9.2083108e-07
8.3904894e-07
7.6560939e-07
6.994981e-07
6.3984844e-07
5.8591633e-07
5.370599e-07
4.9272306e-07
4.5242206e-07
4.1573439e-07
3.8228976e-07
3.5176245e-07
3.2386503e-07
2.9834313e-07
2.749709e-07
2.5354734e-07
2.3389305e-07
2.1584755e-07
1.9926694e-07
1.8402193e-07
1.6999609e-07
1.5708439e-07
1.451919e-07
1.342327e-07
1.2412886e-07
1.1480963e-07
1.0621067e-07
9.8273394e-08
9.0944388e-08
8.4174904e-08
7.7920397e-08
7.2140126e-08
6.6796792e-08
6.1856218e-08
5.7287061e-08
5.3060556e-08
4.9150282e-08
4.5531958e-08
4.2183254e-08
3.9083623e-08
3.6214146e-08
3.3557399e-08
3.1097321e-08
2.8819105e-08
2.6709096e-08
2.475469e-08
2.2944256e-08
2.1267054e-08
1.9713162e-08
1.8273416e-08
1.6939345e-08
1.5703119e-08
1.4557499e-08
1.349579e-08
1.2511799e-08
1.1599798e-08
1.0754484e-08
9.9709524e-09
9.2446619e-09
8.5714089e-09
7.9473015e-09
7.3687362e-09
6.8323757e-09
6.3351294e-09
2.7917003e-06
2.472428e-06
2.1988861e-06
1.9629585e-06
1.7582438e-06
1.5796405e-06
1.423044e-06
1.2851225e-06
1.1631486e-06
1.0548731e-06
9.5842742e-07
8.7224908e-07
7.9502323e-07
7.2563701e-07
6.6314329e-07
6.0673191e-07
5.5570643e-07
5.0946548e-07
4.6748755e-07
4.2931854e-07
3.9456155e-07
3.6286841e-07
3.3393266e-07
3.0748369e-07
2.8328183e-07
2.611142e-07
2.4079119e-07
2.2214352e-07
2.0501966e-07
1.8928369e-07
1.7481342e-07
1.6149878e-07
1.4924045e-07
1.3794861e-07
1.2754194e-07
1.1794668e-07
1.0909583e-07
1.0092845e-07
9.3389024e-08
8.6426939e-08
7.9995986e-08
7.4053934e-08
6.8562151e-08
6.3485263e-08
5.8790848e-08
5.4449173e-08
5.043294e-08
4.6717079e-08
4.3278545e-08
4.0096139e-08
3.7150357e-08
3.4423238e-08
3.1898234e-08
2.9560098e-08
2.7394765e-08
2.5389267e-08
2.3531634e-08
2.1810816e-08
2.0216611e-08
1.8739595e-08
1.737106e-08
1.6102957e-08
1.4927849e-08
1.3838857e-08
1.2829618e-08
1.1894248e-08
1.1027303e-08
1.0223746e-08
9.4789137e-09
8.7884908e-09
8.1484824e-09
7.5551896e-09
7.0051874e-09
6.495304e-09
6.0226018e-09
2.6387312e-06
2.3394041e-06
2.0824727e-06
1.8605131e-06
1.667646e-06
1.4991698e-06
1.3512899e-06
1.2209177e-06
1.1055194e-06
1.0030006e-06
9.1161823e-07
8.2991211e-07
7.5665168e-07
6.9079391e-07
6.3144997e-07
5.7785864e-07
5.2936483e-07
4.8540234e-07
4.4547967e-07
4.0916848e-07
3.7609409e-07
3.4592757e-07
3.183792e-07
2.9319298e-07
2.7014205e-07
2.4902478e-07
2.296615e-07
2.118917e-07
1.9557166e-07
1.8057239e-07
1.667779e-07
1.5408366e-07
1.423953e-07
1.3162747e-07
1.2170287e-07
1.1255134e-07
1.0410916e-07
9.6318352e-08
8.9126082e-08
8.2484173e-08
7.6348633e-08
7.0679248e-08
6.5439223e-08
6.059486e-08
5.6115273e-08
5.1972128e-08
4.8139411e-08
4.4593228e-08
4.1311609e-08
3.8274348e-08
3.5462846e-08
3.2859977e-08
3.0449964e-08
2.8218261e-08
2.6151458e-08
2.4237183e-08
2.2464018e-08
2.0821423e-08
1.9299665e-08
1.7889751e-08
1.6583374e-08
1.5372856e-08
1.4251097e-08
1.3211534e-08
1.2248096e-08
1.1355168e-08
1.0527554e-08
9.7604465e-09
9.0493954e-09
8.3902821e-09
7.7792936e-09
7.2128995e-09
6.6878307e-09
6.2010599e-09
5.7497831e-09
2.5075394e-06
2.2252782e-06
1.9825662e-06
1.7725691e-06
1.5898527e-06
1.4300563e-06
1.2896498e-06
1.1657525e-06
1.0559954e-06
9.5841658e-07
8.7138022e-07
7.9351369e-07
7.2365848e-07
6.6083128e-07
6.0419317e-07
5.5302481e-07
5.0670656e-07
4.6470231e-07
4.2654628e-07
3.9183222e-07
3.6020449e-07
3.3135067e-07
3.0499538e-07
2.8089519e-07
2.5883418e-07
2.386204e-07
2.2008271e-07
2.0306815e-07
1.8743968e-07
1.7307428e-07
1.5986127e-07
1.4770088e-07
1.36503e-07
1.2618612e-07
1.1667638e-07
1.0790675e-07
9.9816304e-08
9.2349607e-08
8.5456143e-08
7.9089827e-08
7.320857e-08
6.7773893e-08
6.2750583e-08
5.8106386e-08
5.3811732e-08
4.9839493e-08
4.6164761e-08
4.276465e-08
3.9618119e-08
3.6705814e-08
3.4009917e-08
3.151402e-08
2.9203005e-08
2.7062937e-08
2.5080964e-08
2.3245228e-08
2.1544788e-08
1.9969541e-08
1.8510157e-08
1.7158018e-08
1.5905159e-08
1.4744219e-08
1.3668394e-08
1.2671391e-08
1.1747388e-08
1.0891003e-08
1.0097253e-08
9.3615292e-09
8.6795643e-09
8.0474091e-09
7.4614074e-09
6.9181739e-09
6.4145736e-09
5.9477034e-09
5.5148745e-09
2.3970399e-06
2.1291233e-06
1.8983683e-06
1.6984343e-06
1.5242601e-06
1.3717704e-06
1.2376569e-06
1.1192132e-06
1.0142089e-06
9.2079306e-07
8.3741992e-07
7.627904e-07
6.9580652e-07
6.355352e-07
5.8117945e-07
5.3205517e-07
4.8757252e-07
4.4722073e-07
4.1055564e-07
3.7718962e-07
3.4678305e-07
3.1903742e-07
2.9368944e-07
2.7050621e-07
2.4928111e-07
2.298303e-07
2.1198985e-07
1.9561313e-07
1.8056878e-07
1.6673878e-07
1.5401695e-07
1.4230753e-07
1.31524e-07
1.2158809e-07
1.1242884e-07
1.0398185e-07
9.6188582e-08
8.8995735e-08
8.2354743e-08
7.622129e-08
7.0554897e-08
6.5318547e-08
6.0478364e-08
5.6003311e-08
5.1864933e-08
4.8037119e-08
4.4495894e-08
4.1219225e-08
3.8186857e-08
3.5380151e-08
3.2781952e-08
3.0376458e-08
2.814911e-08
2.6086485e-08
2.4176204e-08
2.2406845e-08
2.0767868e-08
1.924954e-08
1.7842873e-08
1.6539562e-08
1.5331935e-08
1.4212898e-08
1.3175895e-08
1.2214862e-08
1.1324189e-08
1.0498689e-08
9.7335612e-09
9.0243623e-09
8.3669808e-09
7.7576105e-09
7.1927276e-09
6.6690692e-09
6.183614e-09
5.7335638e-09
5.3163271e-09
2.3063189e-06
2.0501585e-06
1.8292065e-06
1.6375257e-06
1.4703593e-06
1.3238655e-06
1.1949174e-06
1.0809513e-06
9.798499e-07
8.8985343e-07
8.0948972e-07
7.3751993e-07
6.728957e-07
6.147251e-07
5.6224551e-07
5.1480175e-07
4.7182839e-07
4.3283545e-07
3.9739653e-07
3.6513924e-07
3.3573715e-07
3.0890313e-07
2.8438383e-07
2.6195503e-07
2.414177e-07
2.225947e-07
2.0532799e-07
1.8947618e-07
1.7491252e-07
1.6152317e-07
1.4920559e-07
1.3786734e-07
1.2742486e-07
1.1780253e-07
1.089318e-07
1.007504e-07
9.3201765e-08
8.6234354e-08
7.9801204e-08
7.3859456e-08
6.8369951e-08
6.3296881e-08
5.8607464e-08
5.4271669e-08
5.0261955e-08
4.655305e-08
4.3121745e-08
3.9946713e-08
3.700834e-08
3.4288581e-08
3.1770823e-08
2.9439765e-08
2.7281307e-08
2.5282447e-08
2.3431197e-08
2.1716493e-08
2.0128125e-08
1.8656665e-08
1.7293405e-08
1.6030301e-08
1.4859918e-08
1.3775385e-08
1.2770349e-08
1.1838934e-08
1.0975707e-08
1.0175639e-08
9.4340787e-09
8.7467216e-09
8.1095831e-09
7.5189748e-09
6.9714819e-09
6.4639426e-09
5.9934289e-09
5.5572292e-09
5.1528318e-09
2.2346263e-06
1.9877426e-06
1.7745285e-06
1.5893639e-06
1.4277319e-06
1.2859745e-06
1.1611078e-06
1.0506801e-06
9.5266361e-07
8.6537027e-07
7.87386e-07
7.1751946e-07
6.5476144e-07
5.9825247e-07
5.4725706e-07
5.0114283e-07
4.5936367e-07
4.2144598e-07
3.869774e-07
3.555976e-07
3.2699053e-07
3.0087809e-07
2.7701476e-07
2.5518319e-07
2.3519035e-07
2.1686439e-07
2.0005193e-07
1.8461573e-07
1.7043271e-07
1.5739227e-07
1.4539481e-07
1.3435049e-07
1.2417809e-07
1.148041e-07
1.0616185e-07
9.8190798e-08
9.0835904e-08
8.4047039e-08
7.7778506e-08
7.1988593e-08
6.6639193e-08
6.1695449e-08
5.712545e-08
5.2899957e-08
4.8992156e-08
4.5377439e-08
4.2033203e-08
3.8938678e-08
3.6074761e-08
3.3423875e-08
3.0969837e-08
2.8697743e-08
2.6593854e-08
2.4645506e-08
2.2841017e-08
2.1169609e-08
1.9621331e-08
1.8186998e-08
1.6858123e-08
1.5626869e-08
1.4485991e-08
1.3428791e-08
1.2449079e-08
1.1541127e-08
1.0699641e-08
9.9197197e-09
9.1968299e-09
8.5267755e-09
7.9056733e-09
7.329928e-09
6.7962114e-09
6.3014415e-09
5.8427644e-09
5.4175368e-09
5.0233108e-09
2.1813692e-06
1.9413688e-06
1.7338975e-06
1.5535702e-06
1.3960474e-06
1.2578073e-06
1.1359719e-06
1.0281728e-06
9.3244836e-07
8.4716362e-07
7.7094764e-07
7.0264433e-07
6.4127348e-07
5.8599974e-07
5.3610775e-07
4.9098206e-07
4.5009086e-07
4.1297276e-07
3.792258e-07
3.484986e-07
3.2048284e-07
2.949071e-07
2.7153171e-07
2.501444e-07
2.305566e-07
2.1260041e-07
1.961259e-07
1.809989e-07
1.6709906e-07
1.5431822e-07
1.4255895e-07
1.3173332e-07
1.2176189e-07
1.1257268e-07
1.0410045e-07
9.6285919e-08
8.9075198e-08
8.2419197e-08
7.6273163e-08
7.0596242e-08
6.5351103e-08
6.0503601e-08
5.6022472e-08
5.1879066e-08
4.804711e-08
4.4502488e-08
4.122305e-08
3.818844e-08
3.5379934e-08
3.2780306e-08
3.0373691e-08
2.814548e-08
2.6082205e-08
2.417145e-08
2.2401763e-08
2.0762577e-08
1.9244137e-08
1.7837436e-08
1.6534154e-08
1.5326604e-08
1.4207685e-08
1.3170828e-08
1.2209963e-08
1.1319475e-08
1.049417e-08
9.7292435e-09
9.0202494e-09
8.3630732e-09
7.7539063e-09
7.1892233e-09
6.6657601e-09
6.1804942e-09
5.7306268e-09
5.3135656e-09
4.9269099e-09
2.1461072e-06
1.9106605e-06
1.7069891e-06
1.5298629e-06
1.3750599e-06
1.2391482e-06
1.1193197e-06
1.0132609e-06
9.1905423e-07
8.3509967e-07
7.6005483e-07
6.9278693e-07
6.3233496e-07
5.778795e-07
5.2871852e-07
4.8424776e-07
4.4394491e-07
4.0735661e-07
3.7408783e-07
3.4379308e-07
3.1616916e-07
2.9094911e-07
2.678971e-07
2.4680422e-07
2.2748488e-07
2.0977376e-07
1.9352324e-07
1.7860119e-07
1.6488906e-07
1.522803e-07
1.4067891e-07
1.2999826e-07
1.2016004e-07
1.1109333e-07
1.027338e-07
9.5023031e-08
8.7907885e-08
8.1339965e-08
7.5275141e-08
6.9673127e-08
6.449711e-08
5.9713412e-08
5.52912e-08
5.1202215e-08
4.7420542e-08
4.3922392e-08
4.0685914e-08
3.7691026e-08
3.4919258e-08
3.2353613e-08
2.997844e-08
2.7779322e-08
2.5742974e-08
2.3857144e-08
2.2110531e-08
2.0492708e-08
1.899405e-08
1.7605669e-08
1.6319355e-08
1.5127523e-08
1.4023162e-08
1.2999793e-08
1.2051424e-08
1.1172514e-08
1.0357938e-08
9.6029533e-09
8.9031724e-09
8.2545345e-09
7.6532811e-09
7.0959326e-09
6.5792675e-09
6.100303e-09
5.6562766e-09
5.24463e-09
4.8629936e-09
2.1285488e-06
1.8953685e-06
1.6935884e-06
1.5180557e-06
1.3646067e-06
1.2298542e-06
1.1110249e-06
1.0058328e-06
9.123819e-07
8.2908978e-07
7.5462821e-07
6.8787599e-07
6.2788169e-07
5.7383382e-07
5.2503695e-07
4.8089244e-07
4.4088267e-07
4.0455831e-07
3.7152774e-07
3.4144844e-07
3.1401974e-07
2.889769e-07
2.66086e-07
2.4513981e-07
2.2595423e-07
2.0836522e-07
1.9222631e-07
1.7740638e-07
1.6378778e-07
1.5126476e-07
1.3974204e-07
1.2913363e-07
1.1936179e-07
1.1035612e-07
1.0205275e-07
9.4393691e-08
8.7326172e-08
8.0802144e-08
7.4777788e-08
6.9213102e-08
6.4071529e-08
5.9319627e-08
5.4926775e-08
5.086491e-08
4.7108294e-08
4.3633302e-08
4.0418233e-08
3.7443141e-08
3.4689681e-08
3.214097e-08
2.9781466e-08
2.7596847e-08
2.5573917e-08
2.3700508e-08
2.1965394e-08
2.0358218e-08
1.8869419e-08
1.7490168e-08
1.6212309e-08
1.5028309e-08
1.3931204e-08
1.2914557e-08
1.1972416e-08
1.1099276e-08
1.0290046e-08
9.5400159e-09
8.8448264e-09
8.2004436e-09
7.6031339e-09
7.0494405e-09
6.5361634e-09
6.0603392e-09
5.6192238e-09
5.2102755e-09
4.8311404e-09
2.142493e-06
1.9009617e-06
1.6933444e-06
1.513765e-06
1.3575555e-06
1.2209719e-06
1.1009856e-06
9.9512636e-07
9.0136357e-07
8.1801625e-07
7.4368326e-07
6.7718936e-07
6.1754288e-07
5.6390239e-07
5.1555012e-07
4.7187079e-07
4.3233451e-07
3.9648287e-07
3.639177e-07
3.3429176e-07
3.0730111e-07
2.8267879e-07
2.6018952e-07
2.3962532e-07
2.2080179e-07
2.0355496e-07
1.8773868e-07
1.7322231e-07
1.5988886e-07
1.4763329e-07
1.363611e-07
1.2598712e-07
1.1643442e-07
1.0763344e-07
9.9521131e-08
9.2040277e-08
8.513889e-08
7.8769658e-08
7.2889471e-08
6.7459003e-08
6.2442339e-08
5.7806647e-08
5.352188e-08
4.9560517e-08
4.5897331e-08
4.2509176e-08
3.9374801e-08
3.6474682e-08
3.3790868e-08
3.1306847e-08
2.9007419e-08
2.6878588e-08
2.4907457e-08
2.3082137e-08
2.1391666e-08
1.9825929e-08
1.8375593e-08
1.703204e-08
1.5787311e-08
1.4634056e-08
1.356548e-08
1.2575305e-08
1.1657727e-08
1.0807377e-08
1.0019291e-08
9.2888781e-09
8.6118876e-09
7.9843882e-09
7.4027406e-09
6.8635763e-09
6.3637767e-09
5.9004544e-09
5.4709355e-09
5.072744e-09
4.7035863e-09
2.1416543e-06
1.9001233e-06
1.6925248e-06
1.5129758e-06
1.3568031e-06
1.2202599e-06
1.1003154e-06
9.9449786e-07
9.0077593e-07
8.17468e-07
7.4317263e-07
6.7671437e-07
6.1710148e-07
5.634925e-07
5.1516972e-07
4.7151792e-07
4.3200727e-07
3.9617949e-07
3.6363648e-07
3.3403112e-07
3.0705957e-07
2.8245497e-07
2.5998212e-07
2.3943315e-07
2.2062373e-07
2.0338997e-07
1.8758579e-07
1.7308064e-07
1.5975759e-07
1.4751164e-07
1.3624837e-07
1.2588264e-07
1.163376e-07
1.0754371e-07
9.9437962e-08
9.1963192e-08
8.5067441e-08
7.8703431e-08
7.2828083e-08
6.7402098e-08
6.238959e-08
5.7757748e-08
5.3476549e-08
4.9518493e-08
4.5858372e-08
4.2473057e-08
3.9341315e-08
3.6443636e-08
3.3762084e-08
3.1280159e-08
2.8982675e-08
2.6855646e-08
2.4886185e-08
2.3062413e-08
2.1373378e-08
1.9808972e-08
1.835987e-08
1.7017461e-08
1.5773793e-08
1.462152e-08
1.3553856e-08
1.2564527e-08
1.1647732e-08
1.0798109e-08
1.0010698e-08
9.280909e-09
8.6044979e-09
7.9775357e-09
7.3963862e-09
6.8576838e-09
6.3583125e-09
5.8953873e-09
5.4662367e-09
5.0683867e-09
4.6995457e-09
2.1399773e-06
1.898447e-06
1.6908863e-06
1.5113979e-06
1.355299e-06
1.2188365e-06
1.0989755e-06
9.932414e-07
8.9960116e-07
8.1637201e-07
7.4215184e-07
6.7576483e-07
6.1621908e-07
5.6267311e-07
5.1440928e-07
4.708125e-07
4.3135311e-07
3.9557301e-07
3.6307432e-07
3.335101e-07
3.0657674e-07
2.8200754e-07
2.5956753e-07
2.3904899e-07
2.2026777e-07
2.0306014e-07
1.8728017e-07
1.7279745e-07
1.5949516e-07
1.4726846e-07
1.3602301e-07
1.2567379e-07
1.1614405e-07
1.0736432e-07
9.9271706e-08
9.1809097e-08
8.4924614e-08
7.8571043e-08
7.2705367e-08
6.7288346e-08
6.2284143e-08
5.7659997e-08
5.3385931e-08
4.9434485e-08
4.578049e-08
4.2400854e-08
3.9274375e-08
3.6381574e-08
3.3704543e-08
3.122681e-08
2.8933212e-08
2.6809784e-08
2.4843662e-08
2.3022986e-08
2.133682e-08
1.9775075e-08
1.8328439e-08
1.6988317e-08
1.5746769e-08
1.4596462e-08
1.3530621e-08
1.2542981e-08
1.1627753e-08
1.0779583e-08
9.9935183e-09
9.2649787e-09
8.5897258e-09
7.9638374e-09
7.3836837e-09
6.8459046e-09
6.3473895e-09
5.8852582e-09
5.4568438e-09
5.0596764e-09
4.6914684e-09
2.1374631e-06
1.8959339e-06
1.6884301e-06
1.5090325e-06
1.3530444e-06
1.2167029e-06
1.096967e-06
9.913581e-07
8.9784031e-07
8.1472926e-07
7.4062182e-07
6.7434162e-07
6.1489651e-07
5.6144499e-07
5.1326952e-07
4.697552e-07
4.3037264e-07
3.9466401e-07
3.6223174e-07
3.327292e-07
3.0585306e-07
2.8133695e-07
2.5894615e-07
2.3847322e-07
2.1973426e-07
2.025658e-07
1.8682211e-07
1.7237299e-07
1.5910184e-07
1.4690398e-07
1.3568524e-07
1.2536078e-07
1.1585396e-07
1.0709547e-07
9.9022527e-08
9.1578144e-08
8.4710548e-08
7.8372624e-08
7.2521445e-08
6.7117857e-08
6.2126103e-08
5.7513492e-08
5.3250116e-08
4.9308578e-08
4.5663765e-08
4.2292639e-08
3.9174047e-08
3.6288558e-08
3.3618304e-08
3.1146853e-08
2.8859078e-08
2.6741048e-08
2.477993e-08
2.2963894e-08
2.1282029e-08
1.9724271e-08
1.8281332e-08
1.6944636e-08
1.5706266e-08
1.4558906e-08
1.3495796e-08
1.2510689e-08
1.1597809e-08
1.0751816e-08
9.9677707e-09
9.2411031e-09
8.5675859e-09
7.943307e-09
7.3646457e-09
6.8282504e-09