5.809247999999999496e-02
5.789968430800000038e-02
5.784804779999999647e-02
5.773505476800000480e-02
5.743638520299999828e-02
5.690910065699999326e-02
5.615763890000000785e-02
5.520631206999999929e-02
5.408361044800000239e-02
5.281554549899999951e-02
5.142731140890000052e-02
4.993959104679999983e-02
4.837108481920000119e-02
4.673847266049999810e-02
4.505637569399999903e-02
4.333833179160000160e-02
4.159850669660000028e-02
3.984641368109999998e-02
3.809231806720000252e-02
3.634501188239999681e-02
3.461142913890000172e-02
3.289816556680000281e-02
3.121067568879999643e-02
2.955403713489999917e-02
2.793302466600000242e-02
2.635204479399999924e-02
2.481510168239999675e-02
2.332622851439999923e-02
2.188891218149999901e-02
2.050609955679999832e-02
1.917978464159999716e-02
1.791139714440000141e-02
1.670153937480000142e-02
1.555033566600000187e-02
1.445743174699999981e-02
1.342206002680000100e-02
1.244307885240000106e-02
1.151902097810000164e-02
1.064787670440000070e-02
9.827466991999999485e-03
9.055834192500000768e-03
8.331306537599999368e-03
7.650787921999999824e-03
7.010440154400000325e-03
6.406195443200000950e-03
5.833120320000000254e-03
5.285397763200000432e-03
4.756882007600000094e-03
4.241824852199999746e-03
3.735838185999999696e-03
3.237299548399999796e-03
2.748703882200000028e-03
2.277068715459999986e-03
1.833250884779999727e-03
1.428799167810000182e-03
1.071966648339999894e-03
7.643330394699999293e-04
5.021117605349999582e-04
2.793210339150000040e-04
8.908799999999999814e-05
1.900741987200000038e-01
1.894394402600000082e-01
1.892637246500000203e-01
1.888884153000000010e-01
1.879075711799999826e-01
1.861792516799999908e-01
1.837186400800000230e-01
1.806044637600000002e-01
1.769283909899999896e-01
1.727805976800000365e-01
1.682378174399999926e-01
1.633699167100000349e-01
1.582387714980000026e-01
1.528978100279999863e-01
1.473950535559999941e-01
1.417740562439999963e-01
1.360818615869999748e-01
1.303507231380000020e-01
1.246122692109999930e-01
1.188957404880000013e-01
1.132249387500000037e-01
1.076197780380000052e-01
1.020994857660000033e-01
9.668010027099999126e-02
9.137768704400001107e-02
8.620563671999999233e-02
8.117833208600001849e-02
7.630784315999999956e-02
7.160623294100000591e-02
6.708247996200000784e-02
6.274381602299999861e-02
5.859458179900000480e-02
5.463662212600000484e-02
5.087050838200000979e-02
4.729487945399999532e-02
4.390777681599999926e-02
4.070489885499999766e-02
3.768148019999999904e-02
3.483145203999999523e-02
3.214710118400000011e-02
2.962222506000000352e-02
2.725132478099999769e-02
2.502404324800000177e-02
2.292814801899999838e-02
2.095027248000000050e-02
1.907448483999999930e-02
1.728205137299999861e-02
1.555320205800000098e-02
1.386893596800000024e-02
1.221531084720000118e-02
1.058655927350000102e-02
8.989884501399999714e-03
7.447046123300000119e-03
5.992703170020000081e-03
4.664897816679999983e-03
3.492426676319999868e-03
2.482294936259999991e-03
1.623002427199999893e-03
8.953173723900000958e-04
2.793210339150000040e-04
3.442601685599999684e-01
3.430159275300000421e-01
3.425481379500000534e-01
3.417063519600000432e-01
3.397803957800000219e-01
3.365257786199999934e-01
3.319736662799999682e-01
3.262590072000000063e-01
3.195525563999999652e-01
3.120039019999999996e-01
3.037569442100000461e-01
2.949347159999999857e-01
2.856440146799999469e-01
2.759815774800000177e-01
2.660362539200000209e-01
2.558853578249999372e-01
2.456098395479999752e-01
2.352672697500000076e-01
2.249176070459999732e-01
2.146099621160000304e-01
2.043874821159999966e-01
1.942864345979999907e-01
1.843406305599999684e-01
1.745792291159999898e-01
1.650299178090000041e-01
1.557176120100000061e-01
1.466670332020000023e-01
1.378996617900000166e-01
1.294361388529999823e-01
1.212929249499999779e-01
1.134821425760000058e-01
1.060111803520000090e-01
9.888324814200000201e-02
9.209918544000000873e-02
8.565703282000000640e-02
7.955154642399998866e-02
7.377662687399999530e-02
6.832304415600000402e-02
6.317979654000001333e-02
5.833397987199999413e-02
5.377374834799999309e-02
4.948732061999999710e-02
4.545771267999999810e-02
4.166317835600000241e-02
3.808022342399999816e-02
3.468050716200000300e-02
3.143195824399999672e-02
2.829981452900000305e-02
2.525168864999999957e-02
2.226215924099999785e-02
1.932003532200000234e-02
1.643422846499999895e-02
1.363833856000000108e-02
1.098958870200000132e-02
8.556104868219999507e-03
6.397220659239999732e-03
4.535373735619999472e-03
2.955514390380000259e-03
1.623002427199999893e-03
5.021117605349999582e-04
5.052433823999999962e-01
5.031358858799999112e-01
5.020065529399999615e-01
5.002824049899999848e-01
4.970067318899999420e-01
4.918570111800000255e-01
4.848814042799999835e-01
4.762721109399999930e-01
4.662670181399999891e-01
4.550821043999999649e-01
4.429190401199999960e-01
4.299502451199999631e-01
4.163260212999999599e-01
4.021872474400000064e-01
3.876567179000000030e-01
3.728443884629999983e-01
3.578668657799999875e-01
3.428048998399999547e-01
3.277429455160000282e-01
3.127531157040000509e-01
2.978955356460000203e-01
2.832243402239999486e-01
2.687850568540000040e-01
2.546210467119999765e-01
2.407705665150000063e-01
2.272702538350000190e-01
2.141529061299999870e-01
2.014503204110000001e-01
1.891888664280000076e-01
1.773925090000000038e-01
1.660759000280000175e-01
1.552497686220000173e-01
1.449173453170000125e-01
1.350806413060000044e-01
1.257343430400000017e-01
1.168723555349999998e-01
1.084843001899999937e-01
1.005570889359999887e-01
9.307575144000000689e-02
8.602145590800001906e-02
7.937650305200000256e-02
7.312088700000000940e-02
6.723052745900000293e-02
6.167597306699999782e-02
5.642423799400000245e-02
5.143653645899999571e-02
4.666924779999999384e-02
4.207710294000000656e-02
3.761741396799999498e-02
3.325640833599999985e-02
2.897523650800000114e-02
2.477717839799999794e-02
2.069386096799999755e-02
1.678615453100000196e-02
1.313931585999999867e-02
9.848019365499999581e-03
6.977077623000000478e-03
4.535373735619999472e-03
2.482294936259999991e-03
7.643330394699999293e-04
6.582148349899999973e-01
6.551378327500000376e-01
6.531409322399999162e-01
6.503273815999999208e-01
6.455410968000000471e-01
6.383991018400000383e-01
6.289697851400000150e-01
6.175044553499999811e-01
6.042873793599999876e-01
5.895982199999999507e-01
5.736824649499999706e-01
5.567639660100001109e-01
5.390318939600000636e-01
5.206616410500000125e-01
5.018027832000000465e-01
4.826091339199999886e-01
4.632084197400000436e-01
4.437206330550000355e-01
4.242438459299999742e-01
4.048713519480000578e-01
3.856792964159999615e-01
3.667359310230000058e-01
3.481019978700000128e-01
3.298306048399999857e-01
3.119714976640000081e-01
2.945705091229999795e-01
2.776686645180000412e-01
2.613058511940000161e-01
2.455146983799999794e-01
2.303227832600000247e-01
2.157483495520000072e-01
2.018034996719999807e-01
1.884937055299999997e-01
1.758173655480000097e-01
1.637694347520000093e-01
1.523407950200000027e-01
1.415171808160000100e-01
1.312821935319999911e-01
1.216159433380000071e-01
1.124945386479999920e-01
1.038949000600000033e-01
9.579103992000001511e-02
8.815046970899999279e-02
8.093666640999999662e-02
7.410786371400000794e-02
6.761900088699999978e-02
6.142058843699999687e-02
5.546315064399999495e-02
4.970121537399999068e-02
4.409701652399999894e-02
3.862581174000000173e-02
3.328158936900000447e-02
2.807810303999999993e-02
2.305609772999999904e-02
1.827873286399999894e-02
1.383917808000000201e-02
9.848019365499999581e-03
6.397220659239999732e-03
3.492426676319999868e-03
1.071966648339999894e-03
8.030112087699999845e-01
7.989485116500000261e-01
7.960269077600000687e-01
7.920875816699999294e-01
7.858006298999999917e-01
7.767237390000000241e-01
7.649352912500000379e-01
7.507363504799999809e-01
7.344658580500000866e-01
7.164498781799999438e-01
6.969842356399998939e-01
6.763251068900000273e-01
6.547108224400000065e-01
6.323353668000000205e-01
6.093948116499999790e-01
5.860618654399999405e-01
5.624991068000000372e-01
5.388278220000000118e-01
5.151894303920000473e-01
4.916828179680000077e-01
4.684033677819999797e-01
4.454320703849999341e-01
4.228428986220000296e-01
4.006993201199999799e-01
3.790618506740000004e-01
3.579859749759999876e-01
3.375204988479999502e-01
3.177114913920000006e-01
2.985981695839999839e-01
2.802105523199999726e-01
2.625716859980000151e-01
2.456934311229999612e-01
2.295817326319999907e-01
2.142347102640000112e-01
1.996446955319999828e-01
1.858000861080000288e-01
1.726836757450000148e-01
1.602744322139999789e-01
1.485482131839999942e-01
1.374764480959999868e-01
1.270295789280000143e-01
1.171760605200000138e-01
1.078767947799999932e-01
9.908900287499999848e-02
9.076641224299999977e-02
8.286102547500000248e-02
7.532190240000001535e-02
6.810152371199999777e-02
6.115482774400000238e-02
5.444420786399999102e-02
4.794015712199999751e-02
4.162206498900000023e-02
3.547988168400000031e-02
2.952238598999999686e-02
2.377456360500000004e-02
1.827873286399999894e-02
1.313931585999999867e-02
8.556114474599998271e-03
4.664897816679999983e-03
1.428799167810000182e-03
9.436329043700000252e-01
9.385606363099998628e-01
9.346744802100001026e-01
9.295870544799998969e-01
9.218009833200001557e-01
9.108283129400001066e-01
8.967480818400000997e-01
8.799011280799999835e-01
8.606626555000000955e-01
8.394235437199998318e-01
8.165125879200000325e-01
7.922310493199999915e-01
7.668469720800001888e-01
7.405930162399999572e-01
7.136971858399999702e-01
6.863473892000000465e-01
6.587320591199998798e-01
6.310130573600000181e-01
6.033295236599999223e-01
5.758072921800000410e-01
5.485595435899999206e-01
5.216755293879999922e-01
4.952424097000000525e-01
4.693383702369999799e-01
4.440314660509999678e-01
4.193866194559999205e-01
3.954614532329999710e-01
3.723067705499999436e-01
3.499695772079999823e-01
3.284815487099999598e-01
3.078694932750000168e-01
2.881457632479999531e-01
2.693162980199999557e-01
2.513780223300000061e-01
2.343230186159999950e-01
2.181343027499999809e-01
2.027933687919999672e-01
1.882743298799999798e-01
1.745479654729999719e-01
1.615819041900000141e-01
1.493400630399999984e-01
1.377843049280000065e-01
1.268716270580000083e-01
1.165558224640000085e-01
1.067892525590000002e-01
9.752226830900000143e-02
8.870691522000000162e-02
8.029655898699998573e-02
7.224938019200000117e-02
6.452528046700001241e-02
5.708765964799999981e-02
4.990069725800000411e-02
4.292855632999999227e-02
3.614102869500000065e-02
2.952238598999999686e-02
2.305609772999999904e-02
1.678615453100000196e-02
1.098958870200000132e-02
5.992712770679999718e-03
1.833250884779999727e-03
1.083558254610000215e+00
1.077437345460000140e+00
1.072542019010000125e+00
1.066276157099999899e+00
1.056991607949999912e+00
1.044134876119999999e+00
1.027785455550000115e+00
1.008312153200000116e+00
9.861457920599999705e-01
9.617043176100000812e-01
9.353767334399999411e-01
9.075029397799999620e-01
8.783750035200000861e-01
8.482635995399998574e-01
8.174208954099999591e-01
7.860830354299999101e-01
7.544364253499999950e-01
7.226785431000000148e-01
6.909640251599998839e-01
6.594468264999998608e-01
6.282317247599999988e-01
5.974469939759999848e-01
5.671809103399999552e-01
5.375231875950000626e-01
5.085552346160000514e-01
4.803503194979999447e-01
4.529742177800000213e-01
4.264850495819998977e-01
4.009326091750000098e-01
3.763544040000000312e-01
3.527786769479999696e-01
3.302187664020000413e-01
3.086811890909999523e-01
2.881610137500000279e-01
2.686482713670000355e-01
2.501243769029999897e-01
2.325665522250000006e-01
2.159440426560000070e-01
2.002246773999999951e-01
1.853710311750000062e-01
1.713420779460000098e-01
1.580948072100000212e-01
1.455828401600000044e-01
1.337583508040000035e-01
1.225724600959999938e-01
1.119771564600000047e-01
1.019251976000000032e-01
9.237102277000000528e-02
8.327238506399999018e-02
7.458468687600000591e-02
6.626261772900000901e-02
5.825392692399999212e-02
5.049821791400000565e-02
4.292855632999999227e-02
3.547988168400000031e-02
2.807822856799999794e-02
2.069386096799999755e-02
1.363844832000000139e-02
7.447066645899998866e-03
2.277068715459999986e-03
1.225671593700000228e+00
1.218445776040000261e+00
1.212479520379999842e+00
1.204984314690000113e+00
1.194173600959999915e+00
1.179414497159999797e+00
1.160778566039999848e+00
1.138657783340000007e+00
1.113535320390000027e+00
1.085861042639999940e+00
1.056079073949999891e+00
1.024555589099999997e+00
9.916328753399999973e-01
9.576096456600000639e-01
9.227659669600001280e-01
8.873624180000000417e-01
8.516256381599999203e-01
8.157577575000000136e-01
7.799440557600001434e-01
7.443421474000000426e-01
7.091025275999999211e-01
6.743378558400000555e-01
6.401644048799999265e-01
6.066808328699999642e-01
5.739836428310000072e-01
5.421515182420000301e-01
5.112595220400000251e-01
4.813727280299999745e-01
4.525463425080000213e-01
4.248210741480000219e-01
3.982265331520000173e-01
3.727790885240000462e-01
3.484833863000000309e-01
3.253349579479999365e-01
3.033199572480000383e-01
2.824187649520000232e-01
2.626033570719999988e-01
2.438417050879999604e-01
2.260951792439999941e-01
2.093228690680000170e-01
1.934808984659999731e-01
1.785215969629999899e-01
1.643961869799999975e-01
1.510564922999999837e-01
1.384526574860000248e-01
1.265362892500000169e-01
1.152605362999999938e-01
1.045793124209999925e-01
9.444645995999997878e-02
8.481059609599998772e-02
7.561560403000000541e-02
6.679174437599999514e-02
5.825392692399999212e-02
4.990069725800000411e-02
4.162206498900000023e-02
3.328158936900000447e-02
2.477730384000000063e-02
1.643434575599999822e-02
8.989906432200000380e-03
2.748703882200000028e-03
1.372289575529999972e+00
1.363891321259999900e+00
1.356772152030000012e+00
1.347975683679999870e+00
1.335580629570000122e+00
1.318861582250000053e+00
1.297888480809999967e+00
1.273062104159999874e+00
1.244902253779999857e+00
1.213916981940000195e+00
1.180573819239999933e+00
1.145300261760000105e+00
1.108467613920000039e+00
1.070407608320000037e+00
1.031435696199999974e+00
9.918379794400000726e-01
9.518705874999999761e-01
9.117564674399999403e-01
8.717046664299999970e-01
8.318885484699998223e-01
7.924685056400000427e-01
7.535908310400000198e-01
7.153753981400000628e-01
6.779338738900000383e-01
6.413747577800000821e-01
6.057888210000000884e-01
5.712589232460000277e-01
5.378570013699999208e-01
5.056438187239998827e-01
4.746632170400000295e-01
4.449476642999999898e-01
4.165126957699999410e-01
3.893648924490000218e-01
3.634979077860000518e-01
3.388955254619999691e-01
3.155361968380000492e-01
2.933880745920000033e-01
2.724158572499999487e-01
2.525779899030000109e-01
2.338290273030000088e-01
2.161217610240000198e-01
1.994064792659999974e-01
1.836327891370000132e-01
1.687505675799999827e-01
1.547084500400000007e-01
1.414581959119999843e-01
1.289504686680000289e-01
1.171357355440000025e-01
1.059606486539999975e-01
9.536581458599999173e-02
8.527998956700000299e-02
7.561579112000001157e-02
6.626279280600000376e-02
5.708782345200000274e-02
4.794031035300000410e-02
3.862595505599999979e-02
2.897537053100000121e-02
1.932016063600000208e-02
1.058658270450000063e-02
3.237310499799999752e-03
1.525276983780000206e+00
1.515608999389999934e+00
1.507230610339999943e+00
1.497037391779999727e+00
1.482966358650000149e+00
1.464216739439999859e+00
1.440816951299999760e+00
1.413184846260000072e+00
1.381876647409999714e+00
1.347444083639999901e+00
1.310412876600000054e+00
1.271234458580000171e+00
1.230321567639999891e+00
1.188055649929999902e+00
1.144776223800000103e+00
1.100804436540000264e+00
1.056415951360000216e+00
1.011861877180000091e+00
9.673741952200001215e-01
9.231506078300001361e-01
8.793680625399998840e-01
8.361805618599998935e-01
7.937332220499999647e-01
7.521574633499999996e-01
7.115540121600000267e-01
6.720445515070000431e-01
6.337092716239999257e-01
5.966324743809999775e-01
5.608764502599999924e-01
5.264910480780000679e-01
4.935106949299999934e-01
4.619535657750000190e-01
4.318234795840000251e-01
4.031135935559999606e-01
3.758089967299999556e-01
3.498815213279999892e-01
3.252977489939999911e-01
3.020198133600000001e-01
2.800023253360000020e-01
2.591987729549999897e-01
2.395567305600000141e-01
2.210251684500000036e-01
2.035518762359999623e-01
1.870836611339999900e-01
1.715691822400000066e-01
1.569554613829999834e-01
1.431903527370000095e-01
1.302159928240000097e-01
1.179714439909999996e-01
1.063834795699999947e-01
9.536581458599999173e-02
8.481079594000000277e-02
7.458468687600000591e-02
6.452528046700001241e-02
5.444420786399999102e-02
4.409701652399999894e-02
3.325640833599999985e-02
2.226229309799999945e-02
1.221534838980000044e-02
3.735849884000000225e-03
1.686181189440000061e+00
1.675130620150000027e+00
1.665372739800000002e+00
1.653659602200000078e+00
1.637807869039999975e+00
1.616910862289999917e+00
1.590965904289999955e+00
1.560395701760000087e+00
1.525793648280000081e+00
1.487757452250000112e+00
1.446855670040000152e+00
1.403580177300000065e+00
1.358393731650000102e+00
1.311708193000000078e+00
1.263898276850000002e+00
1.215326688260000010e+00
1.166285241440000009e+00
1.117054440119999992e+00
1.067899979859999959e+00
1.019027362320000130e+00
9.706379059199998771e-01
9.229128110400001139e-01
8.760087624599999234e-01
8.300616077400000403e-01
7.852080768000000432e-01
7.415583436799999539e-01
6.992132068140000101e-01
6.582612177340000370e-01
6.187739071300000226e-01
5.808016550000000278e-01
5.443828760099999053e-01
5.095349316399999662e-01
4.762637894319999843e-01
4.445618879980000049e-01
4.144111229440000099e-01
3.857820647999999908e-01
3.586405550159999511e-01
3.329425312050000030e-01
3.086421246300000143e-01
2.856886675540000198e-01
2.640288503820000243e-01
2.436082708479999914e-01
2.243721435800000163e-01
2.062646474359999815e-01
1.892293895030000006e-01
1.732096894229999962e-01
1.581448718160000100e-01
1.439682335260000223e-01
1.306059491759999913e-01
1.179714439909999996e-01
1.059606486539999975e-01
9.444645995999997878e-02
8.327238506399999018e-02
7.224938019200000117e-02
6.115482774400000238e-02
4.970137885999999922e-02
3.761756685199999645e-02
2.525168864999999957e-02
1.386906961100000009e-02
4.241837344800000222e-03
1.856335867150000096e+00
1.843786059080000150e+00
1.832503184879999969e+00
1.819129613949999946e+00
1.801356876800000117e+00
1.778182034550000123e+00
1.749544448319999779e+00
1.715887278239999869e+00
1.677825371700000012e+00
1.635989795999999830e+00
1.591006780619999894e+00
1.543410867919999818e+00
1.493713583529999944e+00
1.442357624470000044e+00
1.389765638999999942e+00
1.336315595400000111e+00
1.282348690899999921e+00
1.228176336059999985e+00
1.174064165999999965e+00
1.120272869519999936e+00
1.067014009880000058e+00
1.014475619070000167e+00
9.628446702099998644e-01
9.122693373500000424e-01
8.629110592800001145e-01
8.148718647300001727e-01
7.682802608600000083e-01
7.232254114399999656e-01
6.797860332480000212e-01
6.380144665919998959e-01
5.979535994080000805e-01
5.596228862640000301e-01
5.230275257180000414e-01
4.881600188849999356e-01
4.550008204800000122e-01
4.235194983180000095e-01
3.936777440750000023e-01
3.654313607779999806e-01
3.387310248220000708e-01
3.135227621200000203e-01
2.897517112199999856e-01
2.673592139670000201e-01
2.462872861800000091e-01
2.264744003340000145e-01
2.078592880529999964e-01
1.903755749399999864e-01
1.739524324079999851e-01
1.585126961109999677e-01
1.439682335260000223e-01
1.302159928240000097e-01
1.171357355440000025e-01
1.045795402819999914e-01
9.237123599999999546e-02
8.029655898699998573e-02
6.810152371199999777e-02
5.546332519199999311e-02
4.207726617000000224e-02
2.829981452900000305e-02
1.555320205800000098e-02
4.756895345499999837e-03
2.036970023040000299e+00
2.022784222229999873e+00
2.009809808799999598e+00
1.994616719040000152e+00
1.974764945120000004e+00
1.949147722880000266e+00
1.917663975099999973e+00
1.880731189949999882e+00
1.839003502979999816e+00
1.793160100619999975e+00
1.743857160190000144e+00
1.691692842419999954e+00
1.637202215699999908e+00
1.580894132860000134e+00
1.523225819569999917e+00
1.464605834020000108e+00
1.405413871239999946e+00
1.345977609199999980e+00
1.286614229219999794e+00
1.227586803500000157e+00
1.169138617680000047e+00
1.111485609900000116e+00
1.054831700579999865e+00
9.993406842000001067e-01
9.451762695400000025e-01
8.924793378599999993e-01
8.413690656000000212e-01
7.919540218799999698e-01
7.443102294400001373e-01
6.985004653799999907e-01
6.545688200999999484e-01
6.125382973440000045e-01
5.724138250880000944e-01
5.341876694909999390e-01
4.978400514359999640e-01
4.633386227400000390e-01
4.306441303619999994e-01
3.997091881200000585e-01
3.704814486449999333e-01
3.429048804120000127e-01
3.169201059100000273e-01
2.924643060990000376e-01
2.694724702319999943e-01
2.478776274540000213e-01
2.276071864149999957e-01
2.085864777299999695e-01
1.907322553399999898e-01
1.739524324079999851e-01
1.581448718160000100e-01
1.431903527370000095e-01
1.289507285220000132e-01
1.152607795169999921e-01
1.019251976000000032e-01
8.870691522000000162e-02
7.532210159999999655e-02
6.142077474800000658e-02
4.666942203000000455e-02
3.143195824399999672e-02
1.728205137299999861e-02
5.285411999999999749e-03
2.229227243929999602e+00
2.213256367559999660e+00
2.198419261080000187e+00
2.181215339320000002e+00
2.159098485659999955e+00
2.130857866800000000e+00
2.096325753059999908e+00
2.055930297539999785e+00
2.010316911589999922e+00
1.960223400480000322e+00
1.906333215599999908e+00
1.849313193779999809e+00
1.789743521999999976e+00
1.728175453199999989e+00
1.665103037489999993e+00
1.600976596800000040e+00
1.536210161640000127e+00
1.471175672819999614e+00
1.406204362240000005e+00
1.341601326459999965e+00
1.277623121049999755e+00
1.214521220339999985e+00
1.152500374239999958e+00
1.091762276000000087e+00
1.032485152259999817e+00
9.748187917100000766e-01
9.188967486400000384e-01
8.648262060899999382e-01
8.127023220000000325e-01
7.625968629299999524e-01
7.145417335679999926e-01
6.685721227999998906e-01
6.246949677600001083e-01
5.829011160720000140e-01
5.431708373000000423e-01
5.054700307410000537e-01
4.697580690879999410e-01
4.359849273500000510e-01
4.040946723840000421e-01
3.740271912720000147e-01
3.457175713899999780e-01
3.190959273839999999e-01
2.940897317399999711e-01
2.706216008880000246e-01
2.486089447919999917e-01
2.279625944399999715e-01
2.085864777299999695e-01
1.903755749399999864e-01
1.732096894229999962e-01
1.569557575739999877e-01
1.414581959119999843e-01
1.265362892500000169e-01
1.119771564600000047e-01
9.752226830900000143e-02
8.286102547500000248e-02
6.761919969799999597e-02
5.143672237800000352e-02
3.468068099999999793e-02
1.907448483999999930e-02
5.833135512000000265e-03
2.434220727680000085e+00
2.416295712149999719e+00
2.399403359899999977e+00
2.379982581190000168e+00
2.355385506899999815e+00
2.324323379520000010e+00
2.286542387249999919e+00
2.242449753959999903e+00
2.192711383170000250e+00
2.138086414099999999e+00
2.079335743199999698e+00
2.017147099799999843e+00
1.952170648210000303e+00
1.884995191620000066e+00
1.816167018699999858e+00
1.746170523060000201e+00
1.675460214019999672e+00
1.604447854320000033e+00
1.533495558849999885e+00
1.462932164720000205e+00
1.393046052519999911e+00
1.324116247440000338e+00
1.256376880429999954e+00
1.190037899690000067e+00
1.125297554669999922e+00
1.062313736500000161e+00
1.001252094400000070e+00
9.422182015400001331e-01
8.853128099999999501e-01
8.306068522500000828e-01
7.781600650400000152e-01
7.279989922590001106e-01
6.801292458400000074e-01
6.345441093910000330e-01
5.912235013400000128e-01
5.501346582159999388e-01
5.112318615800000021e-01
4.744625889600000423e-01
4.397659117819999741e-01
4.070759421400000355e-01
3.763189757759999310e-01
3.474184628079999837e-01
3.202894892129999338e-01
2.948428255499999651e-01
2.709833406269999689e-01
2.486089447919999917e-01
2.276071864149999957e-01
2.078592880529999964e-01
1.892293895030000006e-01
1.715694982099999766e-01
1.547084500400000007e-01
1.384529343519999844e-01
1.225727191839999924e-01
1.067892525590000002e-01
9.076663900199999357e-02
7.410807580099999792e-02
5.642443632800001052e-02
3.808022342399999816e-02
2.095027248000000050e-02
6.406211649600000724e-03
2.653049940750000335e+00
2.632997928400000021e+00
2.613820766579999955e+00
2.591955782399999908e+00
2.564664779520000160e+00
2.530535288640000324e+00
2.489269155840000192e+00
2.441224563030000461e+00
2.387092356260000159e+00
2.327666671979999879e+00
2.263727698539999889e+00
2.196048877439999991e+00
2.125304888759999677e+00
2.052149352539999860e+00
1.977173742379999988e+00
1.900914401999999725e+00
1.823857862250000128e+00
1.746458765839999927e+00
1.669105013399999837e+00
1.592168608460000190e+00
1.515973595339999980e+00
1.440807422279999805e+00
1.366939887980000101e+00
1.294610825829999978e+00
1.224028190159999863e+00
1.155367936800000050e+00
1.088797498819999987e+00
1.024461745709999816e+00
9.624446033099999243e-01
9.028458842399998963e-01
8.457161994900000979e-01
7.910814348300000409e-01
7.389647428380000660e-01
6.893535774269998750e-01
6.422276833919999817e-01
5.975504665129999227e-01
5.552750044640000215e-01
5.153418977489999664e-01
4.776861168040000272e-01
4.422315220399999358e-01
4.088946357500000128e-01
3.775868918159999699e-01
3.482123958119999196e-01
3.206674407949999805e-01
2.948428255499999651e-01
2.706216008880000246e-01
2.478776274540000213e-01
2.264744003340000145e-01
2.062646474359999815e-01
1.870836611339999900e-01
1.687505675799999827e-01
1.510564922999999837e-01
1.337586271060000054e-01
1.165560809760000094e-01
9.908924470000000928e-02
8.093666640999999662e-02
6.167618457800000398e-02
4.166317835600000241e-02
2.292814801899999838e-02
7.010457437500000957e-03
2.886789856490000528e+00
2.864422080520000691e+00
2.842747694929999902e+00
2.818185750740000550e+00
2.787930996159999619e+00
2.750493684330000299e+00
2.705478611529999800e+00
2.653218928799999876e+00
2.594401961700000037e+00
2.529849900919999950e+00
2.460393279929999899e+00
2.386841148299999826e+00
2.309956663859999981e+00
2.230425254200000040e+00
2.148892749699999882e+00
2.065932095240000432e+00
1.982090904479999915e+00
1.897852327680000117e+00
1.813657031819999821e+00
1.729901510000000142e+00
1.646945058720000077e+00
1.565111311359999924e+00
1.484686568199999890e+00
1.405938679500000177e+00
1.329091222199999978e+00
1.254355137179999913e+00
1.181904579200000027e+00
1.111890904170000027e+00
1.044425474609999904e+00
9.795951945599999933e-01
9.174699142399999063e-01
8.580819876100000965e-01
8.014520469999999452e-01
7.475677865190000215e-01
6.964090661549999783e-01
6.479366830559999402e-01
6.020978585740000000e-01
5.588249014399998549e-01
5.180448045080000563e-01
4.796694330679999174e-01
4.436055288000000374e-01
4.097485793339999960e-01
3.779907066000000038e-01
3.482123958119999196e-01
3.202894892129999338e-01
2.940897317399999711e-01
2.694724702319999943e-01
2.462876957700000091e-01
2.243721435800000163e-01
2.035518762359999623e-01
1.836331254380000055e-01
1.643961869799999975e-01
1.455828401600000044e-01
1.268719026519999904e-01
1.078767947799999932e-01
8.815046970899999279e-02
6.723052745900000293e-02
4.545771267999999810e-02
2.502404324800000177e-02
7.650806347200000100e-03
3.136563254159999925e+00
3.111665347999999831e+00
3.087248932500000098e+00
3.059725296480000356e+00
3.026235498000000135e+00
2.985193184999999527e+00
2.936151004620000116e+00
2.879370652760000038e+00
2.815553659859999946e+00
2.745534469999999949e+00
2.670188474550000191e+00
2.590393861799999975e+00
2.506946109570000303e+00
2.420597058569999849e+00
2.332052303620000266e+00
2.241933260349999735e+00
2.150832952170000034e+00
2.059283010070000142e+00
1.967759977500000090e+00
1.876703091200000006e+00
1.786496359549999857e+00
1.697507895080000218e+00
1.610056414500000255e+00
1.524436263489999943e+00
1.440888519809999879e+00
1.359649458500000074e+00
1.280914377000000215e+00
1.204831914359999923e+00
1.131543713189999911e+00
1.061141427839999984e+00
9.937032045399999403e-01
9.292594712500000798e-01
8.678404799999999142e-01
8.094285180800000479e-01
7.540005480300001617e-01
7.015149556380000373e-01
6.519091787040000030e-01
6.051090585239999875e-01
5.610260603520000888e-01
5.195607646320000716e-01
4.806067402259999732e-01
4.440440206919999966e-01
4.097485793339999960e-01
3.775868918159999699e-01
3.474184628079999837e-01
3.190959273839999999e-01
2.924643060990000376e-01
2.673596504640000093e-01
2.436082708479999914e-01
2.210251684500000036e-01
1.994068376600000025e-01
1.785215969629999899e-01
1.580951211200000150e-01
1.377843049280000065e-01
1.171763352600000280e-01
9.579129688399999620e-02
7.312088700000000940e-02
4.948732061999999710e-02
2.725132478099999769e-02
8.331326173199999491e-03
3.403461324000000676e+00
3.375838903080000009e+00
3.348405566609999884e+00
3.317634448810000247e+00
3.280602133940000442e+00
3.235655678880000163e+00
3.182260027020000326e+00
3.120637815919999891e+00
3.051475698699999572e+00
2.975608359359999788e+00
2.893997750800000102e+00
2.807525466720000029e+00
2.717071324479999994e+00
2.623449768299999985e+00
2.527408417050000189e+00
2.429634386399999624e+00
2.330761896869999905e+00
2.231370702990000066e+00
2.131995905159999705e+00
2.033103592799999859e+00
1.935144132890000090e+00
1.838489777369999967e+00
1.743506192609999950e+00
1.650518161600000200e+00
1.559806775069999984e+00
1.471616490199999738e+00
1.386151664700000063e+00
1.303605349200000152e+00
1.224110503199999922e+00
1.147778662959999973e+00
1.074684725799999852e+00
1.004878162999999880e+00
9.383805069799999732e-01
8.751705666899999292e-01
8.152352692200000028e-01
7.585071644999999974e-01
7.049211335100000753e-01
6.543890666039998694e-01
6.068107781279999946e-01
5.620719853560000034e-01
5.200480902759999635e-01
4.806067402259999732e-01
4.436055288000000374e-01
4.088946357500000128e-01
3.763189757759999310e-01
3.457175713899999780e-01
3.169201059100000273e-01
2.897517112199999856e-01
2.640292859049999663e-01
2.395567305600000141e-01
2.161221428160000346e-01
1.934812558149999751e-01
1.713424123490000228e-01
1.493403759120000007e-01
1.270298716040000053e-01
1.038949000600000033e-01
7.937650305200000256e-02
5.377374834799999309e-02
2.962244883000000190e-02
9.055855109999998501e-03