7.093513927477561321e-02
7.008711919204640983e-02
6.917814845874613316e-02
6.792512267937048098e-02
6.663847461646546511e-02
6.536975699460688405e-02
6.395851945281859352e-02
6.223691149381500171e-02
6.040472999981966185e-02
5.868923049841363870e-02
5.694197139940231078e-02
5.500516362045839575e-02
5.299900632834318726e-02
5.096771154418498762e-02
4.890955037918053028e-02
4.683715096941085815e-02
4.471426831098555127e-02
4.252690022078272486e-02
4.047071535989458374e-02
3.849287921635306808e-02
3.654174091384082557e-02
3.460742249270824106e-02
3.264751912551432794e-02
3.084650480116844784e-02
2.906819348444441078e-02
2.732510123928230672e-02
2.565910782252013578e-02
2.408053075111220645e-02
2.254065504013721966e-02
2.106096247400792917e-02
1.960710417128234268e-02
1.825492386634368011e-02
1.692757767839666444e-02
1.569295831224028562e-02
1.454489288873168744e-02
1.348958957717629956e-02
1.254818527178989084e-02
1.166960705876936115e-02
1.090654932264687772e-02
1.021898275416045256e-02
9.602408693465442832e-03
9.042228564662526183e-03
8.525773849575946431e-03
8.044032305426364327e-03
7.571370102378994181e-03
7.102467092444812551e-03
6.626016359912187056e-03
6.137889784497177828e-03
5.591896824089875179e-03
5.068305310901232222e-03
4.476408014570537781e-03
3.907754831377799332e-03
3.334250310335376728e-03
2.743414952697528948e-03
2.110398036943684098e-03
1.582963744988441328e-03
1.113112340075883555e-03
7.144404259134721309e-04
3.798818820534741419e-04
9.867785991506662050e-05
2.284361206685619206e-01
2.257115058722806988e-01
2.227765312079370008e-01
2.187744024540946297e-01
2.146754974272689631e-01
2.106150358825177038e-01
2.061109842668279180e-01
2.006083647414463322e-01
1.947681376256260588e-01
1.892828080638464250e-01
1.837025757509020141e-01
1.775028040834003840e-01
1.710969807472215998e-01
1.645784137912318368e-01
1.579713704212675762e-01
1.513034973012445938e-01
1.445017016394216092e-01
1.375258154836480895e-01
1.309025456035276258e-01
1.245181861667591233e-01
1.182471145373920757e-01
1.119986006271003059e-01
1.057291124147104189e-01
9.988606100376910824e-02
9.416571874540612119e-02
8.856650243579214377e-02
8.319832142599939417e-02
7.807108983783818401e-02
7.313144526671794265e-02
6.831605888896881418e-02
6.366195236994791340e-02
5.918371948336879212e-02
5.494052167742826537e-02
5.095882511433315332e-02
4.728503381682624268e-02
4.388543974476740578e-02
4.079776806135904793e-02
3.800893450183119582e-02
3.552099284639370635e-02
3.329726186138237676e-02
3.129469127541351092e-02
2.947629423681069616e-02
2.779611680481725369e-02
2.620239698956485300e-02
2.465147391253616135e-02
2.310401368393227156e-02
2.152612007061621702e-02
1.988095519367728131e-02
1.817944789116036561e-02
1.639040645018674872e-02
1.451084584485921522e-02
1.259867694940620605e-02
1.062013083232672510e-02
8.682996516027592301e-03
6.844976914055708739e-03
5.097372225451070327e-03
3.577810948940955173e-03
2.315210553815987265e-03
1.285714391155630540e-03
3.798494751466239519e-04
3.990298491286677907e-01
3.943295895452283983e-01
3.892123639300401061e-01
3.823173021093752011e-01
3.753065066235736769e-01
3.683769509059537928e-01
3.606460237452939754e-01
3.512139103460650280e-01
3.412370945584833337e-01
3.318085533213279703e-01
3.222214286628214408e-01
3.115903615155053430e-01
3.005309194140098894e-01
2.892794224668770453e-01
2.778289386962827789e-01
2.662679479956843176e-01
2.544648762897079308e-01
2.424070290602694522e-01
2.308743693966154864e-01
2.197560440908276347e-01
2.088087104282974615e-01
1.978879854565230301e-01
1.869782939959854784e-01
1.767301734313597161e-01
1.667068380357312751e-01
1.568825210120284031e-01
1.474828657455816983e-01
1.384657990171395126e-01
1.297708311619515109e-01
1.213188054593159620e-01
1.131398341576690947e-01
1.052626187038275402e-01
9.778210599075236320e-02
9.080778623004130690e-02
8.434566900568137016e-02
7.838005500379373325e-02
7.296297866137152477e-02
6.806530703095022006e-02
6.368217768605378970e-02
5.975297396910231318e-02
5.619872816031033780e-02
5.295412190349226000e-02
4.993342370567481481e-02
4.705746479500805962e-02
4.424580330831161257e-02
4.142833812593277321e-02
3.854603901166280683e-02
3.556358838786261717e-02
3.245402157552513406e-02
2.922525866120832122e-02
2.586009779627052377e-02
2.242269658373518756e-02
1.892884281216878836e-02
1.548759001340479016e-02
1.218355346479049750e-02
9.135228592336281164e-03
6.459730820660433172e-03
4.199151184554466253e-03
2.315601163008661721e-03
7.201576013829893291e-04
5.680188293006473987e-01
5.614061747055395513e-01
5.541522556781911524e-01
5.445007425929418998e-01
5.347419679977925000e-01
5.251130884573828039e-01
5.143006861122646489e-01
5.011693942607813312e-01
4.873457607815335768e-01
4.741361432078216587e-01
4.607030594992332917e-01
4.458655204674705219e-01
4.303287359292616854e-01
4.145174741145682407e-01
3.983706417387224419e-01
3.820417788125996528e-01
3.653819558559529557e-01
3.484280619911052645e-01
3.320880656020336330e-01
3.163292104891040624e-01
3.007496886919884815e-01
2.852185871868394007e-01
2.697570702327998782e-01
2.551156663036860395e-01
2.408218092961211809e-01
2.268179672324411311e-01
2.134038167270632669e-01
2.004922796091968829e-01
1.880366467123630037e-01
1.759500943187633504e-01
1.642501348188515897e-01
1.529997189425912341e-01
1.423320718019965569e-01
1.323992303131528159e-01
1.231939958732265750e-01
1.147114927760277264e-01
1.069958783210685771e-01
1.000059951800534724e-01
9.372269243747817502e-02
8.805916829365197096e-02
8.289818924854400195e-02
7.814079500546859680e-02
7.367251424479794031e-02
6.938642484745827232e-02
6.517261601981293173e-02
6.093735218988177715e-02
5.661107384116744606e-02
5.214816652919412182e-02
4.753573728248521729e-02
4.277631036124548286e-02
3.785935741172347102e-02
3.287055267915893475e-02
2.782813555363536015e-02
2.286193575427101360e-02
1.811000086529493402e-02
1.372088007038980463e-02
9.821308281385025471e-03
6.461275305572259167e-03
3.579246871839369699e-03
1.108749314189409318e-03
7.288815852990189192e-01
7.205205294278943517e-01
7.112200386758678050e-01
6.990157064303222922e-01
6.866880573888439754e-01
6.745491377888573892e-01
6.608615479713166874e-01
6.443313303301204664e-01
6.270368372857558770e-01
6.102754357677243613e-01
5.932036418528024990e-01
5.744343553351584086e-01
5.547592277083884804e-01
5.346617989016965167e-01
5.141040233950534555e-01
4.932825527716596659e-01
4.720868515417609990e-01
4.505937548708862650e-01
4.297403097087433843e-01
4.095925445104644513e-01
3.896024130060022350e-01
3.697042010432067261e-01
3.499741546363111522e-01
3.311409919532525281e-01
3.128000366513573605e-01
2.948541399613889280e-01
2.776286063588306319e-01
2.609981601926331107e-01
2.449542658373094206e-01
2.294236403085148923e-01
2.144039315453190875e-01
1.999929734839618889e-01
1.863555143063167774e-01
1.736615917315821600e-01
1.618981136987923120e-01
1.510750486336254195e-01
1.412085960968911813e-01
1.322431919737930284e-01
1.241319110236437095e-01
1.167665012180696821e-01
1.099936347054358970e-01
1.036857970864538264e-01
9.770789002695216829e-02
9.193600407958320286e-02
8.624537350185255968e-02
8.053242926932764612e-02
7.472709748993222600e-02
6.878898098402093375e-02
6.270647715340632589e-02
5.649062971279893153e-02
5.011623683044551247e-02
4.368412873507408062e-02
3.719353434108903927e-02
3.080454762140050207e-02
2.465863262731073438e-02
1.891719127709350079e-02
1.372451004263661178e-02
9.139819786969404988e-03
5.100721265087589801e-03
1.582523349810381792e-03
8.811540821555794434e-01
8.712194796395646978e-01
8.599210901982121680e-01
8.453394331412092955e-01
8.305796722108879093e-01
8.160400337680969729e-01
7.996450033830871940e-01
7.799465213591216806e-01
7.594884949563044385e-01
7.393422222137451261e-01
7.187848934845572080e-01
6.962919757044278013e-01
6.727763694714208320e-01
6.486177820878182843e-01
6.239123958841390483e-01
5.988440600764343147e-01
5.734310230498588234e-01
5.477138937449471667e-01
5.226510943019494482e-01
4.983446461664859939e-01
4.741767264699704998e-01
4.501746937208138122e-01
4.264594605564946961e-01
4.036707935825820659e-01
3.815289748276637360e-01
3.598953499891995311e-01
3.390734724167837055e-01
3.189446093760977541e-01
2.995236459131653817e-01
2.807737782391556136e-01
2.626709614144784877e-01
2.453454427849564579e-01
2.289791092120862792e-01
2.137372073779018888e-01
1.996053047220901766e-01
1.866141804605464805e-01
1.747322691773745551e-01
1.638946951825597798e-01
1.540150715244631985e-01
1.449643601472812016e-01
1.365689834475493081e-01
1.286824549265337958e-01
1.211598532462987848e-01
1.138716325916091232e-01
1.066943556198332310e-01
9.952663983857157337e-02
9.230143552464915857e-02
8.498819486966438519e-02
7.757294967375451267e-02
7.005745171968702500e-02
6.239826797301472466e-02
5.469078745171913197e-02
4.691119574487429000e-02
3.921210057701477597e-02
3.174371139172867118e-02
2.466505181038001690e-02
1.812003086286938236e-02
1.219316822796930912e-02
6.851438632433245156e-03
2.112179309994324967e-03
1.028224964866657265e+00
1.016786137696517045e+00
1.003522578119677044e+00
9.866632754832210805e-01
9.695283478250258380e-01
9.526064292606152284e-01
9.335471346226318357e-01
9.108460624161521801e-01
8.873497604644667858e-01
8.638880711455401151e-01
8.398887307886577780e-01
8.137827712494299925e-01
7.865669979685896429e-01
7.584791338985794606e-01
7.297605079627063063e-01
7.005929061905924460e-01
6.711306868639174139e-01
6.413903300414717235e-01
6.123015718969329058e-01
5.839563300177269545e-01
5.557572109333912547e-01
5.278221894198874553e-01
5.002921076372479625e-01
4.737184851169915500e-01
4.479287395759448120e-01
4.227669465734256726e-01
3.984775828952361043e-01
3.750131497763787847e-01
3.523620318083504621e-01
3.305482535509452480e-01
3.095331971156372597e-01
2.894678211491264475e-01
2.705317874229371533e-01
2.528721921240565385e-01
2.364880250846340681e-01
2.214100179768858090e-01
2.075729993060836109e-01
1.948892351427006508e-01
1.832407102237706698e-01
1.724766974762455551e-01
1.624233008545107326e-01
1.529189046365989346e-01
1.438328946830734756e-01
1.350195685842265625e-01
1.263760777929400780e-01
1.178105807220734547e-01
1.092581589955109733e-01
1.006853668099581406e-01
9.207132040037183107e-02
8.340409116595830230e-02
7.461431194775423881e-02
6.577929878228770677e-02
5.683689426574488335e-02
4.794642903906350812e-02
3.923242210679916964e-02
3.082357425594559400e-02
2.288212836547861423e-02
1.549912254435127645e-02
8.693960713241072683e-03
2.746824612031849820e-03
1.173662621097899317e+00
1.160659999332890324e+00
1.145464687581520424e+00
1.126361883118585760e+00
1.106862798467502795e+00
1.087511868117254643e+00
1.065747169824936558e+00
1.040098455204280459e+00
1.013568316633865152e+00
9.867766240007985745e-01
9.593100272321520849e-01
9.296226710013649752e-01
8.987027303668964073e-01
8.667187694676311560e-01
8.339965568258232986e-01
8.007998166372610749e-01
7.673574990405566121e-01
7.336413535987399426e-01
7.005980010156235283e-01
6.682493556687009173e-01
6.360599618815446776e-01
6.042619163421469874e-01
5.729797548662716178e-01
5.427040593097682830e-01
5.133203745518895023e-01
4.846907174969420917e-01
4.569898840262799355e-01
4.302638456477730911e-01
4.044509279433941562e-01
3.796467109432296594e-01
3.557990345147098443e-01
3.330767073607811546e-01
3.116429133551707475e-01
2.916263569691589508e-01
2.730226978821334582e-01
2.558481797347812448e-01
2.400389440221785964e-01
2.254808247768529117e-01
2.120170466950079546e-01
1.994824302536677141e-01
1.877211826306040554e-01
1.765642593569213270e-01
1.658786312247158279e-01
1.555544192193409336e-01
1.454757913062398322e-01
1.355628631092402892e-01
1.257505459958298266e-01
1.159982483111982182e-01
1.062727381549861544e-01
9.654911382577652246e-02
8.672885369028239533e-02
7.686162597976328725e-02
6.686300360411172317e-02
5.685499199823478705e-02
4.694177311017922599e-02
3.722958680202070186e-02
2.785909354629043794e-02
1.896225317177883951e-02
1.063745068370503671e-02
3.339679645322234363e-03
1.320424498608793629e+00
1.305778351379759838e+00
1.288634375221648476e+00
1.267284371878060645e+00
1.245366502592362146e+00
1.223488170343297599e+00
1.198929459745311732e+00
1.170315800377985882e+00
1.140682455078913415e+00
1.110484743616507508e+00
1.079474177408066282e+00
1.046148475224424113e+00
1.011412233439286990e+00
9.755146185529186553e-01
9.387432419139125628e-01
9.014692277865566927e-01
8.640364369360016283e-01
8.262926930951454141e-01
7.892780135730373958e-01
7.528737032437788912e-01
7.166732620410054544e-01
6.809900612965785749e-01
6.459299564796100457e-01
6.119486387315614673e-01
5.789517080382298175e-01
5.468355355713433452e-01
5.157141571486573151e-01
4.857187237186221807e-01
4.567444700930720636e-01
4.289520755728577495e-01
4.022759677657462563e-01
3.769127371437553942e-01
3.529778079757476816e-01
3.305808483609142256e-01
3.097227619689157940e-01
2.903976739926411588e-01
2.725479227171930807e-01
2.560435465362328467e-01
2.406942587664569477e-01
2.263255716950607621e-01
2.127925376083007469e-01
1.999426103759452678e-01
1.876464530326517610e-01
1.757916846309549863e-01
1.642860716148974720e-01
1.530452070565420652e-01
1.420008359380331431e-01
1.311004559716237028e-01
1.202990673485544448e-01
1.095503698634137102e-01
9.873517373183549051e-02
8.788914793867087794e-02
7.688381117376234808e-02
6.581999601925540844e-02
5.474410540344271103e-02
4.374192134252464365e-02
3.292406598768851667e-02
2.246883855839947389e-02
1.262430807753660116e-02
3.915612010120976712e-03
1.470001911492839097e+00
1.453676656525318744e+00
1.434526708558980790e+00
1.410925218129667869e+00
1.386503898139922919e+00
1.361946305026480175e+00
1.334523864592167319e+00
1.302872920234105170e+00
1.270021250365298338e+00
1.236317808760756476e+00
1.201637996146218246e+00
1.164619262315693682e+00
1.125928016415247201e+00
1.086028267916983259e+00
1.045119056304347094e+00
1.003704153744545247e+00
9.621803795576806539e-01
9.203454044213342788e-01
8.792741912338788435e-01
8.387476593167229044e-01
7.984381108064023680e-01
7.588083454072057643e-01
7.199040951660812260e-01
6.821604294361938159e-01
6.454876036757427604e-01
6.098384112082582131e-01
5.752522659752552503e-01
5.419353494967619200e-01
5.097639000347953253e-01
4.789396374879536511e-01
4.494012541512558134e-01
4.213481800575388792e-01
3.948744932217190251e-01
3.700352124128794551e-01
3.468474587118767771e-01
3.252968884789843029e-01
3.053255742137281348e-01
2.867805911438881528e-01
2.694698403264806919e-01
2.532072888473410055e-01
2.378440816564972304e-01
2.232615664341100203e-01
2.093270059377221326e-01
1.959261340492168824e-01
1.829818914610228109e-01
1.704004107352631581e-01
1.581119760573461153e-01
1.460518192030612061e-01
1.341594505589797648e-01
1.223814119156465680e-01
1.105716656497507250e-01
9.876206638802838278e-02
8.677353276995639075e-02
7.468258881058202625e-02
6.248199089295183861e-02
5.020136589550670131e-02
3.793376636927008050e-02
2.592390370335147243e-02
1.456983717873455188e-02
4.487223644414480364e-03
1.625285087519219074e+00
1.607239195798007003e+00
1.585959645713595600e+00
1.560048410762485904e+00
1.533012363240580544e+00
1.505629908860150135e+00
1.475197697210824721e+00
1.440355490251296278e+00
1.404116048361245817e+00
1.366777824605004188e+00
1.328267805411548874e+00
1.287389105985102589e+00
1.244577502899983701e+00
1.200489469155961997e+00
1.155284581732394233e+00
1.109597659646366141e+00
1.063779836410897239e+00
1.017723891230769784e+00
9.724125978583645358e-01
9.276085246842630250e-01
8.830571646989003876e-01
8.393221910659190987e-01
7.964443281485568127e-01
7.547808657541675847e-01
7.142956356643976878e-01
6.749953693078003525e-01
6.368398014630877180e-01
6.000782806961028060e-01
5.646060652348441344e-01
5.306366085599897309e-01
4.981333955596379259e-01
4.672887162014571216e-01
4.381637091261297856e-01
4.107643878641339952e-01
3.851396435185133194e-01
3.612515502215388752e-01
3.390397568922389748e-01
3.183461500302126601e-01
2.989629625665192747e-01
2.807090399231905731e-01
2.634493409497353777e-01
2.470584053065445762e-01
2.314224119451444850e-01
2.164307202598664825e-01
2.019900358709443011e-01
1.880085054150891499e-01
1.744167752072669775e-01
1.611381476913399668e-01
1.481041453770454985e-01
1.352473261651602754e-01
1.224153208899782103e-01
1.096112634654659024e-01
9.663247659123130884e-02
8.350624479351531626e-02
7.017247482341565368e-02
5.660808649127343356e-02
4.288220579186417802e-02
2.930634952012004663e-02
1.643655280339888572e-02
5.081485874355484017e-03
1.787087682880597717e+00
1.767273498518586283e+00
1.743744901378547318e+00
1.715455758254424978e+00
1.685698413342226365e+00
1.655321012149879145e+00
1.621718678612040332e+00
1.583481142070607195e+00
1.543707147169456340e+00
1.502602024131042491e+00
1.460082106322254436e+00
1.415148819449281392e+00
1.368029090703250628e+00
1.319546757577883422e+00
1.269864303646772052e+00
1.219765867853197960e+00
1.169430523881771045e+00
1.118982427386176370e+00
1.069241439366131141e+00
1.019972643197897266e+00
9.710193820094075168e-01
9.230186774309266928e-01
8.760228642991231274e-01
8.302228909387232569e-01
7.857785370171639361e-01
7.426761036144787775e-01
7.008343068900807493e-01
6.604822244253767405e-01
6.215884345044047077e-01
5.843359468598540163e-01
5.487351466381121812e-01
5.149735094863646667e-01
4.830703258284842483e-01
4.529859607542734978e-01
4.248002891872446063e-01
3.984538963003761425e-01
3.738866663403397905e-01
3.509148374378116553e-01
3.293549267937838088e-01
3.090246188790068960e-01
2.897768116523678494e-01
2.715070839930178725e-01
2.540884708909604828e-01
2.374141862553162674e-01
2.213997420291265728e-01
2.059411398127468373e-01
1.909630071640074367e-01
1.763923720972845888e-01
1.621406985151881419e-01
1.481452982292337239e-01
1.342344106048333485e-01
1.204011663916618180e-01
1.064001106003342051e-01
9.221353850145820596e-02
7.772731842948120418e-02
6.286147808336957354e-02
4.767466318586458668e-02
3.256001791390050748e-02
1.824200360677850907e-02
5.611077283192661934e-03
1.957296954325432603e+00
1.935622838201765283e+00
1.909697946141680314e+00
1.878991442156721314e+00
1.846355441106899864e+00
1.812800641799719337e+00
1.775777628637518202e+00
1.733961213461329809e+00
1.690500123562406198e+00
1.645434957300518475e+00
1.598663046589218428e+00
1.549462762017073558e+00
1.497757232057530308e+00
1.444648300877784175e+00
1.390276022200285455e+00
1.335534732372197997e+00
1.280441099141478967e+00
1.225352938917742884e+00
1.170944678693662144e+00
1.116974619622251419e+00
1.063426019428577618e+00
1.010956708897297052e+00
9.595904678335129834e-01
9.094355330505042856e-01
8.608248062476273610e-01
8.137222352811538384e-01
7.680328090488540704e-01
7.239169633814873661e-01
6.814339478005059236e-01
6.407198388264065958e-01
6.018669661984401564e-01
5.650183722610642167e-01
5.301570460887535807e-01
4.972490931382071433e-01
4.663514993291266175e-01
4.374032459266485318e-01
4.103237229971607447e-01
3.849490910467562310e-01
3.610703968774010564e-01
3.385263099181915480e-01
3.171909062852830696e-01
2.969213280225628804e-01
2.776053697199408199e-01
2.591591548901956421e-01
2.414590455317935647e-01
2.244170340378166539e-01
2.079542082176733808e-01
1.919953339193071207e-01
1.764430955283332048e-01
1.612287851192789612e-01
1.461748504584512998e-01
1.312505010906007963e-01
1.161714778810794685e-01
1.008758595290315391e-01
8.518947052890901706e-02
6.898614973761904579e-02
5.232527663304915172e-02
3.569573720125565619e-02
1.995997862402344378e-02
6.163203045706396911e-03
2.137052925950301496e+00
2.113420067692554749e+00
2.084950824107018263e+00
2.051731752658462415e+00
2.016056574654731648e+00
1.979125344217370630e+00
1.938444897751671281e+00
1.892858692797566578e+00
1.845517368753710974e+00
1.796226097921539644e+00
1.744928445623755930e+00
1.691235988383597677e+00
1.634680195898690958e+00
1.576671568509235621e+00
1.517369070782345286e+00
1.457719866761851613e+00
1.397615882092577477e+00
1.337595226616607125e+00
1.278278247706731596e+00
1.219329843054985485e+00
1.160930404025764862e+00
1.103780449372669503e+00
1.047747877066280919e+00
9.930273781339934436e-01
9.400099229222628194e-01
8.886736732840285757e-01
8.389152472664834770e-01
7.908602080406895718e-01
7.445838182834502161e-01
7.002242685912438702e-01
6.579381476784826877e-01
6.177956630669473315e-01
5.797827044566075116e-01
5.438771154454337120e-01
5.101024846172304006e-01
4.783847503933941758e-01
4.486337181301908172e-01
4.206756394293618695e-01
3.943386072076067173e-01
3.694530006023686308e-01
3.458712782329927404e-01
3.234622195274350909e-01
3.021382361185814269e-01
2.817715567766658213e-01
2.622645029001404171e-01
2.435257099296311289e-01
2.254779674855429128e-01
2.080167913875496100e-01
1.910754633581174533e-01
1.745665254521912846e-01
1.582908966444324939e-01
1.422054587077574983e-01
1.259779246854768331e-01
1.095021164793246321e-01
9.255311671574489862e-02
7.497248118051515198e-02
5.682682773868877324e-02
3.871209388372989085e-02
2.161851324410328512e-02
6.652754453061518296e-03
2.327518099913737259e+00
2.301819229545035039e+00
2.270676009099633408e+00
2.234745652189492837e+00
2.195919729279718347e+00
2.155397234958163821e+00
2.110765298804069712e+00
2.061209157649682044e+00
2.009749640919368918e+00
1.955937116342190141e+00
1.899852309542032547e+00
1.841359720358717755e+00
1.779755851787587551e+00
1.716543437978296671e+00
1.652031796359621607e+00
1.587158169549226061e+00
1.521752018884595437e+00
1.456522268616856186e+00
1.391964283574289585e+00
1.327763517068978105e+00
1.264248088118028690e+00
1.202141987783407862e+00
1.141167798562780389e+00
1.081607112393155878e+00
1.023938546819180173e+00
9.680934732824844069e-01
9.140141640529181322e-01
8.617939377191432548e-01
8.115020209988372812e-01
7.633089131112289483e-01
7.173593863821355887e-01
6.736916401854872172e-01
6.323156412299565377e-01
5.932094976139982156e-01
5.563561998046234747e-01
5.216788745610592137e-01
4.890620845764026003e-01
4.583490847964103443e-01
4.293731871883174622e-01
4.019636647889301417e-01
3.759779801204354288e-01
3.512780595265675987e-01
3.277763770292450030e-01
3.053506412954771210e-01
2.839097436394643070e-01
2.633591055644677326e-01
2.436011708823222210e-01
2.245507712371985209e-01
2.061238253984872815e-01
1.882281341638511740e-01
1.706475850369665315e-01
1.533164790366464969e-01
1.358564942602139280e-01
1.181220574960754194e-01
9.983973038993471105e-02
8.083388764975101004e-02
6.119909222176468655e-02
4.162378782913316727e-02
2.321884540097069946e-02
7.138894082270533063e-03
2.529871553697387476e+00
2.501910369229756625e+00
2.467994763531736524e+00
2.429189640554042295e+00
2.387038599470850730e+00
2.342695867576811253e+00
2.293811958333938694e+00
2.240056247258370714e+00
2.184198328970877068e+00
2.125557468749866619e+00
2.064444449677280247e+00
2.000760289963755323e+00
1.933867212269120728e+00
1.865173001920046314e+00
1.795150333267391929e+00
1.724708587493999357e+00
1.653676654836787163e+00
1.582912590483532833e+00
1.512777377468080164e+00
1.443030330629801794e+00
1.374097857776479525e+00
1.306712626741425964e+00
1.240531287779752745e+00
1.175847684530415549e+00
1.113213287807255591e+00
1.052556796627071245e+00
9.938852462699788726e-01
9.372455632310524587e-01
8.826955934370376289e-01
8.304069174762338523e-01
7.805441453194621459e-01
7.331067998831463095e-01
6.881328650449740625e-01
6.455769079564075419e-01
6.054144281721782761e-01
5.675541982864961144e-01
5.318527338678250560e-01
4.981823952460936455e-01
4.663645847257871790e-01
4.362313147156628435e-01
4.076516973427571910e-01
3.804845208991906591e-01
3.546344707531869922e-01
3.300021464861342957e-01
3.064850591994323081e-01
2.839876199140687896e-01
2.624093905530297532e-01
2.416647975000872084e-01
2.216546074607358141e-01
2.022838336664108672e-01
1.833069684809713606e-01
1.646346023814846127e-01
1.458454475090117941e-01
1.267631549887797138e-01
1.070813393167801691e-01
8.660837420967329447e-02
6.548071864592305835e-02
4.447212447196842444e-02
2.478229964894823265e-02
7.613069009985957460e-03
2.745256829112418639e+00
2.714840124809192012e+00
2.678044606328276789e+00
2.636151870057923396e+00
2.590498168022356662e+00
2.542031461321623720e+00
2.488646381053118084e+00
2.430454845908645911e+00
2.369877564244593948e+00
2.306081201172598405e+00
2.239657655788663604e+00
2.170437921807955028e+00
2.097934023276680993e+00
2.023479271486345432e+00
1.947622629146505524e+00
1.871230971004539390e+00
1.794229878211273110e+00
1.717560231997594444e+00
1.641484657003473568e+00
1.565880310741621928e+00
1.491211448510333382e+00
1.418186820280445071e+00
1.346475261134276957e+00
1.276361873487700693e+00
1.208446875446420377e+00
1.142655637611566410e+00
1.079052265034314173e+00
1.017705550748742027e+00
9.586391225447929987e-01
9.019856758916949824e-01
8.479188218422812895e-01
7.964244666936179939e-01
7.475693530306420920e-01
7.012832040041150350e-01
6.575446831516567059e-01
6.162422974931367481e-01
5.772203430147734293e-01
5.403498722134284504e-01
5.054699575799178612e-01
4.723931046408830770e-01
4.410139842770630092e-01
4.111845770096532182e-01
3.828108258937581998e-01
3.558121722061472481e-01
3.300665384649562606e-01
3.054954425257324635e-01
2.819832268574029022e-01
2.594297039329882537e-01
2.377354470870353398e-01
2.167941805589303217e-01
1.963273367709635342e-01
1.762158499580323279e-01
1.560002162578260632e-01
1.354842112964359246e-01
1.143276527802181974e-01
9.235772692164107012e-02
6.973716129717064116e-02
4.730963625012356982e-02
2.634617179965999256e-02
8.086596227715299456e-03
2.974835514684627924e+00
2.941807886096563074e+00
2.901981284436779607e+00
2.856708261825811057e+00
2.807366716474922974e+00
2.754442134922512775e+00
2.696377116658966955e+00
2.633470664550817464e+00
2.567847469407007921e+00
2.498538635148826348e+00
2.426472350099385888e+00
2.351360264639422937e+00
2.272919089936014547e+00
2.192344351498303201e+00
2.110332934254014248e+00
2.027597787502507298e+00
1.944271710722532243e+00
1.861286621765566140e+00
1.778888398914461488e+00
1.697087514190729785e+00
1.616310394790979599e+00
1.537243291734133432e+00
1.459657449132664153e+00
1.383788350359004715e+00
1.310233437872972306e+00
1.238965383534413212e+00
1.170090868141660190e+00
1.103693113660935365e+00
1.039798365856972495e+00
9.784641675140300920e-01
9.198624458889252953e-01
8.640123106066528447e-01
8.109519518948516970e-01
7.606196061261577546e-01
7.130022675036721269e-01
6.679577002849057532e-01
6.253553710432097068e-01
5.850130143884517686e-01
5.468139117222070578e-01
5.105517148378460046e-01
4.761567313560657322e-01
4.434493268066543870e-01
4.123856013388056962e-01
3.828464860258236069e-01
3.547391126142816486e-01
3.279502776021647192e-01
3.023767554050315609e-01
2.779130119915693142e-01
2.544410511739890191e-01
2.318329717532464918e-01
2.097678959098929485e-01
1.881287100117047806e-01
1.663864250242776954e-01
1.443526257020653902e-01
1.216666207322114057e-01
9.816869793118485066e-02
7.405107755879214437e-02
5.020206280255907344e-02
2.794554485553123538e-02
8.572937235144281742e-03
3.219803696866151643e+00
3.183977182425655528e+00
3.140892402142799522e+00
3.091923297008194460e+00
3.038653292148109308e+00
2.981024144278745069e+00
2.918025479672579081e+00
2.850116540856193037e+00
2.779059516073743019e+00
2.703924693436867255e+00
2.625858905402317145e+00
2.544543812204907773e+00
2.459764831711121591e+00
2.372706723480547897e+00
2.284088862569470191e+00
2.194666762669700955e+00
2.104602148455253285e+00
2.014905875718806527e+00
1.925809445627227001e+00
1.837384045272331567e+00
1.750072410524649458e+00
1.664550978372832502e+00
1.580666807231017046e+00
1.498713052237521159e+00
1.419151184010674305e+00
1.342053742947820316e+00
1.267537049103526492e+00
1.195715751837612473e+00
1.126590976730280413e+00
1.060220776203828708e+00
9.967288978801467358e-01
9.361871613268865078e-01
8.785774645610635591e-01
8.238735782651581685e-01
7.720315200826430857e-01
7.229118457080923044e-01
6.764017551335668177e-01
6.323258144696455307e-01
5.905138092041856135e-01
5.508414205485048232e-01
5.131800719632793051e-01
4.774259902437413272e-01
4.434699657802171346e-01
4.112263447791211224e-01
3.805940020554804959e-01
3.514561621499753263e-01
3.237116015227586852e-01
2.972310404666071437e-01
2.718692066763652160e-01
2.474844444008206246e-01
2.237318333579929597e-01
2.004498515521429547e-01
1.771023243151244320e-01
1.534571295090217113e-01
1.291921878523550615e-01
1.041426449729400544e-01
7.851277831719553901e-02
5.321858595936399677e-02
2.962904035264028735e-02
9.094307691078025793e-03
3.481241251648653723e+00
3.442480933188748704e+00
3.395825130426675997e+00
3.342912472057530504e+00
3.285387752334467670e+00
3.222815409628786210e+00
3.154648363171172143e+00
3.081417319320310266e+00
3.004535511953933646e+00
2.923257310510406271e+00
2.838876848856663582e+00
2.750928677419041790e+00
2.659365018451159912e+00
2.565526772479291839e+00
2.469837687008081151e+00
2.373285251390980122e+00
2.276064674513750941e+00
2.179217192590383156e+00
2.083028348850841649e+00
1.987501067304029867e+00
1.893219010156961257e+00
1.800840357927631752e+00
1.710229996556487775e+00
1.621756621454605307e+00
1.535784336537132200e+00
1.452453189915674070e+00
1.371903372876008831e+00
1.294243330574889939e+00
1.219461898703335434e+00
1.147644017953986850e+00
1.078878197647937354e+00
1.013255246202242610e+00
9.507263486783847917e-01
8.912767514735525642e-01
8.348490778801852530e-01
7.813049873023314440e-01
7.305220485182752910e-01
6.823667133837634236e-01
6.366863639374245043e-01
5.933255403901965819e-01
5.521968950869124981e-01
5.131567313452263246e-01
4.761394741355403637e-01
4.410335604392395803e-01
4.077348803202311966e-01
3.761277480824414265e-01
3.460858348341412372e-01
3.174755410981341397e-01
2.901295795068852823e-01
2.638573584730745103e-01
2.382958031514679498e-01
2.132790517489273063e-01
1.882241555402454358e-01
1.629188886224990362e-01
1.370321147290652908e-01
1.104009283145933190e-01
8.322669400434999643e-02
5.643125667822734143e-02
3.142647928761699988e-02
9.643591245137882184e-03