# c1_  FACE_DATA 3600
# x y z  c1_
0 -0.02 -0.999 1.79999
0 -0.0597753 -0.999 1.79999
0 -0.0990586 -0.999 1.79999
0 -0.137767 -0.999 1.79999
0 -0.175822 -0.999 1.79999
0 -0.213152 -0.999 1.79999
0 -0.24969 -0.999 1.79999
0 -0.285377 -0.999 1.79999
0 -0.32016 -0.999 1.79999
0 -0.353993 -0.999 1.79999
0 -0.386836 -0.999 1.79999
0 -0.418658 -0.999 1.79999
0 -0.449432 -0.999 1.79999
0 -0.47914 -0.999 1.79999
0 -0.507768 -0.999 1.79999
0 -0.53531 -0.999 1.79999
0 -0.561764 -0.999 1.79999
0 -0.587133 -0.999 1.79999
0 -0.611426 -0.999 1.79999
0 -0.634656 -0.999 1.79999
0 -0.656838 -0.999 1.79999
0 -0.677993 -0.999 1.79999
0 -0.698143 -0.999 1.79999
0 -0.717314 -0.999 1.79999
0 -0.735531 -0.999 1.79999
0 -0.752825 -0.999 1.79999
0 -0.769225 -0.999 1.79999
0 -0.784762 -0.999 1.79999
0 -0.799469 -0.999 1.79999
0 -0.813378 -0.999 1.79999
0 -0.826521 -0.999 1.79999
0 -0.838932 -0.999 1.79999
0 -0.850642 -0.999 1.79999
0 -0.861683 -0.999 1.79999
0 -0.872087 -0.999 1.79999
0 -0.881884 -0.999 1.79999
0 -0.891106 -0.999 1.79999
0 -0.89978 -0.999 1.79999
0 -0.907935 -0.999 1.79999
0 -0.915599 -0.999 1.79999
0 -0.922797 -0.999 1.79999
0 -0.929556 -0.999 1.79999
0 -0.935899 -0.999 1.79999
0 -0.941851 -0.999 1.79999
0 -0.947432 -0.999 1.79999
0 -0.952665 -0.999 1.79999
0 -0.95757 -0.999 1.79999
0 -0.962166 -0.999 1.79999
0 -0.966471 -0.999 1.79999
0 -0.970503 -0.999 1.79999
0 -0.974278 -0.999 1.79999
0 -0.977811 -0.999 1.79999
0 -0.981118 -0.999 1.79999
0 -0.984213 -0.999 1.79999
0 -0.987108 -0.999 1.79999
0 -0.989816 -0.999 1.79999
0 -0.992348 -0.999 1.79999
0 -0.994716 -0.999 1.79999
0 -0.99693 -0.999 1.79999
0 -0.999 -0.999 1.79999
0 -0.02 -0.99693 1.79999
0 -0.0597753 -0.99693 1.79999
0 -0.0990586 -0.99693 1.79999
0 -0.137767 -0.99693 1.79999
0 -0.175822 -0.99693 1.79999
0 -0.213152 -0.99693 1.79999
0 -0.24969 -0.99693 1.79999
0 -0.285377 -0.99693 1.79999
0 -0.32016 -0.99693 1.79999
0 -0.353993 -0.99693 1.79999
0 -0.386836 -0.99693 1.79999
0 -0.418658 -0.99693 1.79999
0 -0.449432 -0.99693 1.79999
0 -0.47914 -0.99693 1.79999
0 -0.507768 -0.99693 1.79999
0 -0.53531 -0.99693 1.79999
0 -0.561764 -0.99693 1.79999
0 -0.587133 -0.99693 1.79999
0 -0.611426 -0.99693 1.79999
0 -0.634656 -0.99693 1.79999
0 -0.656838 -0.99693 1.79999
0 -0.677993 -0.99693 1.79999
0 -0.698143 -0.99693 1.79999
0 -0.717314 -0.99693 1.79999
0 -0.735531 -0.99693 1.79999
0 -0.752825 -0.99693 1.79999
0 -0.769225 -0.99693 1.79999
0 -0.784762 -0.99693 1.79999
0 -0.799469 -0.99693 1.79999
0 -0.813378 -0.99693 1.79999
0 -0.826521 -0.99693 1.79999
0 -0.838932 -0.99693 1.79999
0 -0.850642 -0.99693 1.79999
0 -0.861683 -0.99693 1.79999
0 -0.872087 -0.99693 1.79999
0 -0.881884 -0.99693 1.79999
0 -0.891106 -0.99693 1.79999
0 -0.89978 -0.99693 1.79999
0 -0.907935 -0.99693 1.79999
0 -0.915599 -0.99693 1.79999
0 -0.922797 -0.99693 1.79999
0 -0.929556 -0.99693 1.79999
0 -0.935899 -0.99693 1.79999
0 -0.941851 -0.99693 1.79999
0 -0.947432 -0.99693 1.79999
0 -0.952665 -0.99693 1.79999
0 -0.95757 -0.99693 1.79999
0 -0.962166 -0.99693 1.79999
0 -0.966471 -0.99693 1.79999
0 -0.970503 -0.99693 1.79999
0 -0.974278 -0.99693 1.79999
0 -0.977811 -0.99693 1.79999
0 -0.981118 -0.99693 1.79999
0 -0.984213 -0.99693 1.79999
0 -0.987108 -0.99693 1.79999
0 -0.989816 -0.99693 1.79999
0 -0.992348 -0.99693 1.79999
0 -0.994716 -0.99693 1.79999
0 -0.99693 -0.99693 1.79999
0 -0.999 -0.99693 1.79999
0 -0.02 -0.994716 1.79999
0 -0.0597753 -0.994716 1.79999
0 -0.0990586 -0.994716 1.79999
0 -0.137767 -0.994716 1.79999
0 -0.175822 -0.994716 1.79999
0 -0.213152 -0.994716 1.79999
0 -0.24969 -0.994716 1.79999
0 -0.285377 -0.994716 1.79999
0 -0.32016 -0.994716 1.79999
0 -0.353993 -0.994716 1.79999
0 -0.386836 -0.994716 1.79999
0 -0.418658 -0.994716 1.79999
0 -0.449432 -0.994716 1.79999
0 -0.47914 -0.994716 1.79999
0 -0.507768 -0.994716 1.79999
0 -0.53531 -0.994716 1.79999
0 -0.561764 -0.994716 1.79999
0 -0.587133 -0.994716 1.79999
0 -0.611426 -0.994716 1.79999
0 -0.634656 -0.994716 1.79999
0 -0.656838 -0.994716 1.79999
0 -0.677993 -0.994716 1.79999
0 -0.698143 -0.994716 1.79999
0 -0.717314 -0.994716 1.79999
0 -0.735531 -0.994716 1.79999
0 -0.752825 -0.994716 1.79999
0 -0.769225 -0.994716 1.79999
0 -0.784762 -0.994716 1.79999
0 -0.799469 -0.994716 1.79999
0 -0.813378 -0.994716 1.79999
0 -0.826521 -0.994716 1.79999
0 -0.838932 -0.994716 1.79999
0 -0.850642 -0.994716 1.79999
0 -0.861683 -0.994716 1.79999
0 -0.872087 -0.994716 1.79999
0 -0.881884 -0.994716 1.79999
0 -0.891106 -0.994716 1.79999
0 -0.89978 -0.994716 1.79999
0 -0.907935 -0.994716 1.79999
0 -0.915599 -0.994716 1.79999
0 -0.922797 -0.994716 1.79999
0 -0.929556 -0.994716 1.79999
0 -0.935899 -0.994716 1.79999
0 -0.941851 -0.994716 1.79999
0 -0.947432 -0.994716 1.79999
0 -0.952665 -0.994716 1.79999
0 -0.95757 -0.994716 1.79999
0 -0.962166 -0.994716 1.79999
0 -0.966471 -0.994716 1.79999
0 -0.970503 -0.994716 1.79999
0 -0.974278 -0.994716 1.79999
0 -0.977811 -0.994716 1.79999
0 -0.981118 -0.994716 1.79999
0 -0.984213 -0.994716 1.79999
0 -0.987108 -0.994716 1.79999
0 -0.989816 -0.994716 1.79999
0 -0.992348 -0.994716 1.79999
0 -0.994716 -0.994716 1.79999
0 -0.99693 -0.994716 1.79999
0 -0.999 -0.994716 1.79999
0 -0.02 -0.992348 1.79998
0 -0.0597753 -0.992348 1.79998
0 -0.0990586 -0.992348 1.79998
0 -0.137767 -0.992348 1.79998
0 -0.175822 -0.992348 1.79998
0 -0.213152 -0.992348 1.79998
0 -0.24969 -0.992348 1.79998
0 -0.285377 -0.992348 1.79998
0 -0.32016 -0.992348 1.79998
0 -0.353993 -0.992348 1.79998
0 -0.386836 -0.992348 1.79998
0 -0.418658 -0.992348 1.79998
0 -0.449432 -0.992348 1.79998
0 -0.47914 -0.992348 1.79998
0 -0.507768 -0.992348 1.79998
0 -0.53531 -0.992348 1.79998
0 -0.561764 -0.992348 1.79998
0 -0.587133 -0.992348 1.79998
0 -0.611426 -0.992348 1.79998
0 -0.634656 -0.992348 1.79998
0 -0.656838 -0.992348 1.79998
0 -0.677993 -0.992348 1.79998
0 -0.698143 -0.992348 1.79998
0 -0.717314 -0.992348 1.79998
0 -0.735531 -0.992348 1.79998
0 -0.752825 -0.992348 1.79998
0 -0.769225 -0.992348 1.79998
0 -0.784762 -0.992348 1.79998
0 -0.799469 -0.992348 1.79998
0 -0.813378 -0.992348 1.79998
0 -0.826521 -0.992348 1.79998
0 -0.838932 -0.992348 1.79998
0 -0.850642 -0.992348 1.79998
0 -0.861683 -0.992348 1.79998
0 -0.872087 -0.992348 1.79998
0 -0.881884 -0.992348 1.79998
0 -0.891106 -0.992348 1.79998
0 -0.89978 -0.992348 1.79998
0 -0.907935 -0.992348 1.79998
0 -0.915599 -0.992348 1.79998
0 -0.922797 -0.992348 1.79998
0 -0.929556 -0.992348 1.79998
0 -0.935899 -0.992348 1.79998
0 -0.941851 -0.992348 1.79998
0 -0.947432 -0.992348 1.79998
0 -0.952665 -0.992348 1.79998
0 -0.95757 -0.992348 1.79998
0 -0.962166 -0.992348 1.79999
0 -0.966471 -0.992348 1.79999
0 -0.970503 -0.992348 1.79999
0 -0.974278 -0.992348 1.79999
0 -0.977811 -0.992348 1.79999
0 -0.981118 -0.992348 1.79999
0 -0.984213 -0.992348 1.79999
0 -0.987108 -0.992348 1.79999
0 -0.989816 -0.992348 1.79999
0 -0.992348 -0.992348 1.79999
0 -0.994716 -0.992348 1.79999
0 -0.99693 -0.992348 1.79999
0 -0.999 -0.992348 1.79999
0 -0.02 -0.989816 1.79998
0 -0.0597753 -0.989816 1.79998
0 -0.0990586 -0.989816 1.79998
0 -0.137767 -0.989816 1.79998
0 -0.175822 -0.989816 1.79998
0 -0.213152 -0.989816 1.79998
0 -0.24969 -0.989816 1.79998
0 -0.285377 -0.989816 1.79998
0 -0.32016 -0.989816 1.79998
0 -0.353993 -0.989816 1.79998
0 -0.386836 -0.989816 1.79998
0 -0.418658 -0.989816 1.79998
0 -0.449432 -0.989816 1.79998
0 -0.47914 -0.989816 1.79998
0 -0.507768 -0.989816 1.79998
0 -0.53531 -0.989816 1.79998
0 -0.561764 -0.989816 1.79998
0 -0.587133 -0.989816 1.79998
0 -0.611426 -0.989816 1.79998
0 -0.634656 -0.989816 1.79998
0 -0.656838 -0.989816 1.79998
0 -0.677993 -0.989816 1.79998
0 -0.698143 -0.989816 1.79998
0 -0.717314 -0.989816 1.79998
0 -0.735531 -0.989816 1.79998
0 -0.752825 -0.989816 1.79998
0 -0.769225 -0.989816 1.79998
0 -0.784762 -0.989816 1.79998
0 -0.799469 -0.989816 1.79998
0 -0.813378 -0.989816 1.79998
0 -0.826521 -0.989816 1.79998
0 -0.838932 -0.989816 1.79998
0 -0.850642 -0.989816 1.79998
0 -0.861683 -0.989816 1.79998
0 -0.872087 -0.989816 1.79998
0 -0.881884 -0.989816 1.79998
0 -0.891106 -0.989816 1.79998
0 -0.89978 -0.989816 1.79998
0 -0.907935 -0.989816 1.79998
0 -0.915599 -0.989816 1.79998
0 -0.922797 -0.989816 1.79998
0 -0.929556 -0.989816 1.79998
0 -0.935899 -0.989816 1.79998
0 -0.941851 -0.989816 1.79998
0 -0.947432 -0.989816 1.79998
0 -0.952665 -0.989816 1.79998
0 -0.95757 -0.989816 1.79998
0 -0.962166 -0.989816 1.79998
0 -0.966471 -0.989816 1.79998
0 -0.970503 -0.989816 1.79998
0 -0.974278 -0.989816 1.79998
0 -0.977811 -0.989816 1.79998
0 -0.981118 -0.989816 1.79998
0 -0.984213 -0.989816 1.79998
0 -0.987108 -0.989816 1.79998
0 -0.989816 -0.989816 1.79999
0 -0.992348 -0.989816 1.79999
0 -0.994716 -0.989816 1.79999
0 -0.99693 -0.989816 1.79999
0 -0.999 -0.989816 1.79999
0 -0.02 -0.987108 1.79998
0 -0.0597753 -0.987108 1.79998
0 -0.0990586 -0.987108 1.79998
0 -0.137767 -0.987108 1.79998
0 -0.175822 -0.987108 1.79998
0 -0.213152 -0.987108 1.79998
0 -0.24969 -0.987108 1.79998
0 -0.285377 -0.987108 1.79998
0 -0.32016 -0.987108 1.79998
0 -0.353993 -0.987108 1.79998
0 -0.386836 -0.987108 1.79998
0 -0.418658 -0.987108 1.79998
0 -0.449432 -0.987108 1.79998
0 -0.47914 -0.987108 1.79998
0 -0.507768 -0.987108 1.79998
0 -0.53531 -0.987108 1.79998
0 -0.561764 -0.987108 1.79998
0 -0.587133 -0.987108 1.79998
0 -0.611426 -0.987108 1.79998
0 -0.634656 -0.987108 1.79998
0 -0.656838 -0.987108 1.79998
0 -0.677993 -0.987108 1.79998
0 -0.698143 -0.987108 1.79998
0 -0.717314 -0.987108 1.79998
0 -0.735531 -0.987108 1.79998
0 -0.752825 -0.987108 1.79998
0 -0.769225 -0.987108 1.79998
0 -0.784762 -0.987108 1.79998
0 -0.799469 -0.987108 1.79998
0 -0.813378 -0.987108 1.79998
0 -0.826521 -0.987108 1.79998
0 -0.838932 -0.987108 1.79998
0 -0.850642 -0.987108 1.79998
0 -0.861683 -0.987108 1.79998
0 -0.872087 -0.987108 1.79998
0 -0.881884 -0.987108 1.79998
0 -0.891106 -0.987108 1.79998
0 -0.89978 -0.987108 1.79998
0 -0.907935 -0.987108 1.79998
0 -0.915599 -0.987108 1.79998
0 -0.922797 -0.987108 1.79998
0 -0.929556 -0.987108 1.79998
0 -0.935899 -0.987108 1.79998
0 -0.941851 -0.987108 1.79998
0 -0.947432 -0.987108 1.79998
0 -0.952665 -0.987108 1.79998
0 -0.95757 -0.987108 1.79998
0 -0.962166 -0.987108 1.79998
0 -0.966471 -0.987108 1.79998
0 -0.970503 -0.987108 1.79998
0 -0.974278 -0.987108 1.79998
0 -0.977811 -0.987108 1.79998
0 -0.981118 -0.987108 1.79998
0 -0.984213 -0.987108 1.79998
0 -0.987108 -0.987108 1.79998
0 -0.989816 -0.987108 1.79998
0 -0.992348 -0.987108 1.79999
0 -0.994716 -0.987108 1.79999
0 -0.99693 -0.987108 1.79999
0 -0.999 -0.987108 1.79999
0 -0.02 -0.984213 1.79998
0 -0.0597753 -0.984213 1.79998
0 -0.0990586 -0.984213 1.79998
0 -0.137767 -0.984213 1.79998
0 -0.175822 -0.984213 1.79998
0 -0.213152 -0.984213 1.79998
0 -0.24969 -0.984213 1.79998
0 -0.285377 -0.984213 1.79998
0 -0.32016 -0.984213 1.79998
0 -0.353993 -0.984213 1.79998
0 -0.386836 -0.984213 1.79998
0 -0.418658 -0.984213 1.79998
0 -0.449432 -0.984213 1.79998
0 -0.47914 -0.984213 1.79998
0 -0.507768 -0.984213 1.79998
0 -0.53531 -0.984213 1.79998
0 -0.561764 -0.984213 1.79998
0 -0.587133 -0.984213 1.79998
0 -0.611426 -0.984213 1.79998
0 -0.634656 -0.984213 1.79998
0 -0.656838 -0.984213 1.79998
0 -0.677993 -0.984213 1.79998
0 -0.698143 -0.984213 1.79998
0 -0.717314 -0.984213 1.79998
0 -0.735531 -0.984213 1.79998
0 -0.752825 -0.984213 1.79998
0 -0.769225 -0.984213 1.79998
0 -0.784762 -0.984213 1.79998
0 -0.799469 -0.984213 1.79998
0 -0.813378 -0.984213 1.79998
0 -0.826521 -0.984213 1.79998
0 -0.838932 -0.984213 1.79998
0 -0.850642 -0.984213 1.79998
0 -0.861683 -0.984213 1.79998
0 -0.872087 -0.984213 1.79998
0 -0.881884 -0.984213 1.79998
0 -0.891106 -0.984213 1.79998
0 -0.89978 -0.984213 1.79998
0 -0.907935 -0.984213 1.79998
0 -0.915599 -0.984213 1.79998
0 -0.922797 -0.984213 1.79998
0 -0.929556 -0.984213 1.79998
0 -0.935899 -0.984213 1.79998
0 -0.941851 -0.984213 1.79998
0 -0.947432 -0.984213 1.79998
0 -0.952665 -0.984213 1.79998
0 -0.95757 -0.984213 1.79998
0 -0.962166 -0.984213 1.79998
0 -0.966471 -0.984213 1.79998
0 -0.970503 -0.984213 1.79998
0 -0.974278 -0.984213 1.79998
0 -0.977811 -0.984213 1.79998
0 -0.981118 -0.984213 1.79998
0 -0.984213 -0.984213 1.79998
0 -0.987108 -0.984213 1.79998
0 -0.989816 -0.984213 1.79998
0 -0.992348 -0.984213 1.79999
0 -0.994716 -0.984213 1.79999
0 -0.99693 -0.984213 1.79999
0 -0.999 -0.984213 1.79999
0 -0.02 -0.981118 1.79998
0 -0.0597753 -0.981118 1.79998
0 -0.0990586 -0.981118 1.79998
0 -0.137767 -0.981118 1.79998
0 -0.175822 -0.981118 1.79998
0 -0.213152 -0.981118 1.79998
0 -0.24969 -0.981118 1.79998
0 -0.285377 -0.981118 1.79998
0 -0.32016 -0.981118 1.79998
0 -0.353993 -0.981118 1.79998
0 -0.386836 -0.981118 1.79998
0 -0.418658 -0.981118 1.79998
0 -0.449432 -0.981118 1.79998
0 -0.47914 -0.981118 1.79998
0 -0.507768 -0.981118 1.79998
0 -0.53531 -0.981118 1.79998
0 -0.561764 -0.981118 1.79998
0 -0.587133 -0.981118 1.79998
0 -0.611426 -0.981118 1.79998
0 -0.634656 -0.981118 1.79998
0 -0.656838 -0.981118 1.79998
0 -0.677993 -0.981118 1.79998
0 -0.698143 -0.981118 1.79998
0 -0.717314 -0.981118 1.79998
0 -0.735531 -0.981118 1.79998
0 -0.752825 -0.981118 1.79998
0 -0.769225 -0.981118 1.79998
0 -0.784762 -0.981118 1.79998
0 -0.799469 -0.981118 1.79998
0 -0.813378 -0.981118 1.79998
0 -0.826521 -0.981118 1.79998
0 -0.838932 -0.981118 1.79998
0 -0.850642 -0.981118 1.79998
0 -0.861683 -0.981118 1.79998
0 -0.872087 -0.981118 1.79998
0 -0.881884 -0.981118 1.79998
0 -0.891106 -0.981118 1.79998
0 -0.89978 -0.981118 1.79998
0 -0.907935 -0.981118 1.79998
0 -0.915599 -0.981118 1.79998
0 -0.922797 -0.981118 1.79998
0 -0.929556 -0.981118 1.79998
0 -0.935899 -0.981118 1.79998
0 -0.941851 -0.981118 1.79998
0 -0.947432 -0.981118 1.79998
0 -0.952665 -0.981118 1.79998
0 -0.95757 -0.981118 1.79998
0 -0.962166 -0.981118 1.79998
0 -0.966471 -0.981118 1.79998
0 -0.970503 -0.981118 1.79998
0 -0.974278 -0.981118 1.79998
0 -0.977811 -0.981118 1.79998
0 -0.981118 -0.981118 1.79998
0 -0.984213 -0.981118 1.79998
0 -0.987108 -0.981118 1.79998
0 -0.989816 -0.981118 1.79998
0 -0.992348 -0.981118 1.79999
0 -0.994716 -0.981118 1.79999
0 -0.99693 -0.981118 1.79999
0 -0.999 -0.981118 1.79999
0 -0.02 -0.977811 1.79998
0 -0.0597753 -0.977811 1.79998
0 -0.0990586 -0.977811 1.79998
0 -0.137767 -0.977811 1.79998
0 -0.175822 -0.977811 1.79998
0 -0.213152 -0.977811 1.79998
0 -0.24969 -0.977811 1.79998
0 -0.285377 -0.977811 1.79998
0 -0.32016 -0.977811 1.79998
0 -0.353993 -0.977811 1.79998
0 -0.386836 -0.977811 1.79998
0 -0.418658 -0.977811 1.79998
0 -0.449432 -0.977811 1.79998
0 -0.47914 -0.977811 1.79998
0 -0.507768 -0.977811 1.79998
0 -0.53531 -0.977811 1.79998
0 -0.561764 -0.977811 1.79998
0 -0.587133 -0.977811 1.79998
0 -0.611426 -0.977811 1.79998
0 -0.634656 -0.977811 1.79998
0 -0.656838 -0.977811 1.79998
0 -0.677993 -0.977811 1.79998
0 -0.698143 -0.977811 1.79998
0 -0.717314 -0.977811 1.79998
0 -0.735531 -0.977811 1.79998
0 -0.752825 -0.977811 1.79998
0 -0.769225 -0.977811 1.79998
0 -0.784762 -0.977811 1.79998
0 -0.799469 -0.977811 1.79998
0 -0.813378 -0.977811 1.79998
0 -0.826521 -0.977811 1.79998
0 -0.838932 -0.977811 1.79998
0 -0.850642 -0.977811 1.79998
0 -0.861683 -0.977811 1.79998
0 -0.872087 -0.977811 1.79998
0 -0.881884 -0.977811 1.79998
0 -0.891106 -0.977811 1.79998
0 -0.89978 -0.977811 1.79998
0 -0.907935 -0.977811 1.79998
0 -0.915599 -0.977811 1.79998
0 -0.922797 -0.977811 1.79998
0 -0.929556 -0.977811 1.79998
0 -0.935899 -0.977811 1.79998
0 -0.941851 -0.977811 1.79998
0 -0.947432 -0.977811 1.79998
0 -0.952665 -0.977811 1.79998
0 -0.95757 -0.977811 1.79998
0 -0.962166 -0.977811 1.79998
0 -0.966471 -0.977811 1.79998
0 -0.970503 -0.977811 1.79998
0 -0.974278 -0.977811 1.79998
0 -0.977811 -0.977811 1.79998
0 -0.981118 -0.977811 1.79998
0 -0.984213 -0.977811 1.79998
0 -0.987108 -0.977811 1.79998
0 -0.989816 -0.977811 1.79998
0 -0.992348 -0.977811 1.79999
0 -0.994716 -0.977811 1.79999
0 -0.99693 -0.977811 1.79999
0 -0.999 -0.977811 1.79999
0 -0.02 -0.974278 1.79998
0 -0.0597753 -0.974278 1.79998
0 -0.0990586 -0.974278 1.79998
0 -0.137767 -0.974278 1.79998
0 -0.175822 -0.974278 1.79998
0 -0.213152 -0.974278 1.79998
0 -0.24969 -0.974278 1.79998
0 -0.285377 -0.974278 1.79998
0 -0.32016 -0.974278 1.79998
0 -0.353993 -0.974278 1.79998
0 -0.386836 -0.974278 1.79998
0 -0.418658 -0.974278 1.79998
0 -0.449432 -0.974278 1.79998
0 -0.47914 -0.974278 1.79998
0 -0.507768 -0.974278 1.79998
0 -0.53531 -0.974278 1.79998
0 -0.561764 -0.974278 1.79998
0 -0.587133 -0.974278 1.79998
0 -0.611426 -0.974278 1.79998
0 -0.634656 -0.974278 1.79998
0 -0.656838 -0.974278 1.79998
0 -0.677993 -0.974278 1.79998
0 -0.698143 -0.974278 1.79998
0 -0.717314 -0.974278 1.79998
0 -0.735531 -0.974278 1.79998
0 -0.752825 -0.974278 1.79998
0 -0.769225 -0.974278 1.79998
0 -0.784762 -0.974278 1.79998
0 -0.799469 -0.974278 1.79998
0 -0.813378 -0.974278 1.79998
0 -0.826521 -0.974278 1.79998
0 -0.838932 -0.974278 1.79998
0 -0.850642 -0.974278 1.79998
0 -0.861683 -0.974278 1.79998
0 -0.872087 -0.974278 1.79998
0 -0.881884 -0.974278 1.79998
0 -0.891106 -0.974278 1.79998
0 -0.89978 -0.974278 1.79998
0 -0.907935 -0.974278 1.79998
0 -0.915599 -0.974278 1.79998
0 -0.922797 -0.974278 1.79998
0 -0.929556 -0.974278 1.79998
0 -0.935899 -0.974278 1.79998
0 -0.941851 -0.974278 1.79998
0 -0.947432 -0.974278 1.79998
0 -0.952665 -0.974278 1.79998
0 -0.95757 -0.974278 1.79998
0 -0.962166 -0.974278 1.79998
0 -0.966471 -0.974278 1.79998
0 -0.970503 -0.974278 1.79998
0 -0.974278 -0.974278 1.79998
0 -0.977811 -0.974278 1.79998
0 -0.981118 -0.974278 1.79998
0 -0.984213 -0.974278 1.79998
0 -0.987108 -0.974278 1.79998
0 -0.989816 -0.974278 1.79998
0 -0.992348 -0.974278 1.79999
0 -0.994716 -0.974278 1.79999
0 -0.99693 -0.974278 1.79999
0 -0.999 -0.974278 1.79999
0 -0.02 -0.970503 1.79998
0 -0.0597753 -0.970503 1.79998
0 -0.0990586 -0.970503 1.79998
0 -0.137767 -0.970503 1.79998
0 -0.175822 -0.970503 1.79998
0 -0.213152 -0.970503 1.79998
0 -0.24969 -0.970503 1.79998
0 -0.285377 -0.970503 1.79998
0 -0.32016 -0.970503 1.79998
0 -0.353993 -0.970503 1.79998
0 -0.386836 -0.970503 1.79998
0 -0.418658 -0.970503 1.79998
0 -0.449432 -0.970503 1.79998
0 -0.47914 -0.970503 1.79998
0 -0.507768 -0.970503 1.79998
0 -0.53531 -0.970503 1.79998
0 -0.561764 -0.970503 1.79998
0 -0.587133 -0.970503 1.79998
0 -0.611426 -0.970503 1.79998
0 -0.634656 -0.970503 1.79998
0 -0.656838 -0.970503 1.79998
0 -0.677993 -0.970503 1.79998
0 -0.698143 -0.970503 1.79998
0 -0.717314 -0.970503 1.79998
0 -0.735531 -0.970503 1.79998
0 -0.752825 -0.970503 1.79998
0 -0.769225 -0.970503 1.79998
0 -0.784762 -0.970503 1.79998
0 -0.799469 -0.970503 1.79998
0 -0.813378 -0.970503 1.79998
0 -0.826521 -0.970503 1.79998
0 -0.838932 -0.970503 1.79998
0 -0.850642 -0.970503 1.79998
0 -0.861683 -0.970503 1.79998
0 -0.872087 -0.970503 1.79998
0 -0.881884 -0.970503 1.79998
0 -0.891106 -0.970503 1.79998
0 -0.89978 -0.970503 1.79998
0 -0.907935 -0.970503 1.79998
0 -0.915599 -0.970503 1.79998
0 -0.922797 -0.970503 1.79998
0 -0.929556 -0.970503 1.79998
0 -0.935899 -0.970503 1.79998
0 -0.941851 -0.970503 1.79998
0 -0.947432 -0.970503 1.79998
0 -0.952665 -0.970503 1.79998
0 -0.95757 -0.970503 1.79998
0 -0.962166 -0.970503 1.79998
0 -0.966471 -0.970503 1.79998
0 -0.970503 -0.970503 1.79998
0 -0.974278 -0.970503 1.79998
0 -0.977811 -0.970503 1.79998
0 -0.981118 -0.970503 1.79998
0 -0.984213 -0.970503 1.79998
0 -0.987108 -0.970503 1.79998
0 -0.989816 -0.970503 1.79998
0 -0.992348 -0.970503 1.79999
0 -0.994716 -0.970503 1.79999
0 -0.99693 -0.970503 1.79999
0 -0.999 -0.970503 1.79999
0 -0.02 -0.966471 1.79999
0 -0.0597753 -0.966471 1.79999
0 -0.0990586 -0.966471 1.79998
0 -0.137767 -0.966471 1.79998
0 -0.175822 -0.966471 1.79998
0 -0.213152 -0.966471 1.79998
0 -0.24969 -0.966471 1.79998
0 -0.285377 -0.966471 1.79998
0 -0.32016 -0.966471 1.79998
0 -0.353993 -0.966471 1.79998
0 -0.386836 -0.966471 1.79998
0 -0.418658 -0.966471 1.79998
0 -0.449432 -0.966471 1.79998
0 -0.47914 -0.966471 1.79998
0 -0.507768 -0.966471 1.79998
0 -0.53531 -0.966471 1.79998
0 -0.561764 -0.966471 1.79998
0 -0.587133 -0.966471 1.79998
0 -0.611426 -0.966471 1.79998
0 -0.634656 -0.966471 1.79998
0 -0.656838 -0.966471 1.79998
0 -0.677993 -0.966471 1.79998
0 -0.698143 -0.966471 1.79998
0 -0.717314 -0.966471 1.79998
0 -0.735531 -0.966471 1.79998
0 -0.752825 -0.966471 1.79998
0 -0.769225 -0.966471 1.79998
0 -0.784762 -0.966471 1.79998
0 -0.799469 -0.966471 1.79998
0 -0.813378 -0.966471 1.79998
0 -0.826521 -0.966471 1.79998
0 -0.838932 -0.966471 1.79998
0 -0.850642 -0.966471 1.79998
0 -0.861683 -0.966471 1.79998
0 -0.872087 -0.966471 1.79998
0 -0.881884 -0.966471 1.79998
0 -0.891106 -0.966471 1.79998
0 -0.89978 -0.966471 1.79998
0 -0.907935 -0.966471 1.79998
0 -0.915599 -0.966471 1.79998
0 -0.922797 -0.966471 1.79998
0 -0.929556 -0.966471 1.79998
0 -0.935899 -0.966471 1.79998
0 -0.941851 -0.966471 1.79998
0 -0.947432 -0.966471 1.79998
0 -0.952665 -0.966471 1.79998
0 -0.95757 -0.966471 1.79998
0 -0.962166 -0.966471 1.79998
0 -0.966471 -0.966471 1.79998
0 -0.970503 -0.966471 1.79998
0 -0.974278 -0.966471 1.79998
0 -0.977811 -0.966471 1.79998
0 -0.981118 -0.966471 1.79998
0 -0.984213 -0.966471 1.79998
0 -0.987108 -0.966471 1.79998
0 -0.989816 -0.966471 1.79998
0 -0.992348 -0.966471 1.79999
0 -0.994716 -0.966471 1.79999
0 -0.99693 -0.966471 1.79999
0 -0.999 -0.966471 1.79999
0 -0.02 -0.962166 1.79999
0 -0.0597753 -0.962166 1.79999
0 -0.0990586 -0.962166 1.79999
0 -0.137767 -0.962166 1.79999
0 -0.175822 -0.962166 1.79998
0 -0.213152 -0.962166 1.79998
0 -0.24969 -0.962166 1.79998
0 -0.285377 -0.962166 1.79998
0 -0.32016 -0.962166 1.79998
0 -0.353993 -0.962166 1.79998
0 -0.386836 -0.962166 1.79998
0 -0.418658 -0.962166 1.79998
0 -0.449432 -0.962166 1.79998
0 -0.47914 -0.962166 1.79998
0 -0.507768 -0.962166 1.79998
0 -0.53531 -0.962166 1.79998
0 -0.561764 -0.962166 1.79998
0 -0.587133 -0.962166 1.79998
0 -0.611426 -0.962166 1.79998
0 -0.634656 -0.962166 1.79998
0 -0.656838 -0.962166 1.79998
0 -0.677993 -0.962166 1.79998
0 -0.698143 -0.962166 1.79998
0 -0.717314 -0.962166 1.79998
0 -0.735531 -0.962166 1.79998
0 -0.752825 -0.962166 1.79998
0 -0.769225 -0.962166 1.79998
0 -0.784762 -0.962166 1.79998
0 -0.799469 -0.962166 1.79998
0 -0.813378 -0.962166 1.79998
0 -0.826521 -0.962166 1.79998
0 -0.838932 -0.962166 1.79998
0 -0.850642 -0.962166 1.79998
0 -0.861683 -0.962166 1.79998
0 -0.872087 -0.962166 1.79998
0 -0.881884 -0.962166 1.79998
0 -0.891106 -0.962166 1.79998
0 -0.89978 -0.962166 1.79998
0 -0.907935 -0.962166 1.79998
0 -0.915599 -0.962166 1.79998
0 -0.922797 -0.962166 1.79998
0 -0.929556 -0.962166 1.79998
0 -0.935899 -0.962166 1.79998
0 -0.941851 -0.962166 1.79998
0 -0.947432 -0.962166 1.79998
0 -0.952665 -0.962166 1.79998
0 -0.95757 -0.962166 1.79998
0 -0.962166 -0.962166 1.79998
0 -0.966471 -0.962166 1.79998
0 -0.970503 -0.962166 1.79998
0 -0.974278 -0.962166 1.79998
0 -0.977811 -0.962166 1.79998
0 -0.981118 -0.962166 1.79998
0 -0.984213 -0.962166 1.79998
0 -0.987108 -0.962166 1.79998
0 -0.989816 -0.962166 1.79998
0 -0.992348 -0.962166 1.79999
0 -0.994716 -0.962166 1.79999
0 -0.99693 -0.962166 1.79999
0 -0.999 -0.962166 1.79999
0 -0.02 -0.95757 1.79999
0 -0.0597753 -0.95757 1.79999
0 -0.0990586 -0.95757 1.79999
0 -0.137767 -0.95757 1.79999
0 -0.175822 -0.95757 1.79999
0 -0.213152 -0.95757 1.79998
0 -0.24969 -0.95757 1.79998
0 -0.285377 -0.95757 1.79998
0 -0.32016 -0.95757 1.79998
0 -0.353993 -0.95757 1.79998
0 -0.386836 -0.95757 1.79998
0 -0.418658 -0.95757 1.79998
0 -0.449432 -0.95757 1.79998
0 -0.47914 -0.95757 1.79998
0 -0.507768 -0.95757 1.79998
0 -0.53531 -0.95757 1.79998
0 -0.561764 -0.95757 1.79998
0 -0.587133 -0.95757 1.79998
0 -0.611426 -0.95757 1.79998
0 -0.634656 -0.95757 1.79998
0 -0.656838 -0.95757 1.79998
0 -0.677993 -0.95757 1.79998
0 -0.698143 -0.95757 1.79998
0 -0.717314 -0.95757 1.79998
0 -0.735531 -0.95757 1.79998
0 -0.752825 -0.95757 1.79998
0 -0.769225 -0.95757 1.79998
0 -0.784762 -0.95757 1.79998
0 -0.799469 -0.95757 1.79998
0 -0.813378 -0.95757 1.79998
0 -0.826521 -0.95757 1.79998
0 -0.838932 -0.95757 1.79998
0 -0.850642 -0.95757 1.79998
0 -0.861683 -0.95757 1.79998
0 -0.872087 -0.95757 1.79998
0 -0.881884 -0.95757 1.79998
0 -0.891106 -0.95757 1.79998
0 -0.89978 -0.95757 1.79998
0 -0.907935 -0.95757 1.79998
0 -0.915599 -0.95757 1.79998
0 -0.922797 -0.95757 1.79998
0 -0.929556 -0.95757 1.79998
0 -0.935899 -0.95757 1.79998
0 -0.941851 -0.95757 1.79998
0 -0.947432 -0.95757 1.79998
0 -0.952665 -0.95757 1.79998
0 -0.95757 -0.95757 1.79998
0 -0.962166 -0.95757 1.79998
0 -0.966471 -0.95757 1.79998
0 -0.970503 -0.95757 1.79998
0 -0.974278 -0.95757 1.79998
0 -0.977811 -0.95757 1.79998
0 -0.981118 -0.95757 1.79998
0 -0.984213 -0.95757 1.79998
0 -0.987108 -0.95757 1.79998
0 -0.989816 -0.95757 1.79998
0 -0.992348 -0.95757 1.79998
0 -0.994716 -0.95757 1.79999
0 -0.99693 -0.95757 1.79999
0 -0.999 -0.95757 1.79999
0 -0.02 -0.952665 1.79999
0 -0.0597753 -0.952665 1.79999
0 -0.0990586 -0.952665 1.79999
0 -0.137767 -0.952665 1.79999
0 -0.175822 -0.952665 1.79999
0 -0.213152 -0.952665 1.79999
0 -0.24969 -0.952665 1.79999
0 -0.285377 -0.952665 1.79998
0 -0.32016 -0.952665 1.79998
0 -0.353993 -0.952665 1.79998
0 -0.386836 -0.952665 1.79998
0 -0.418658 -0.952665 1.79998
0 -0.449432 -0.952665 1.79998
0 -0.47914 -0.952665 1.79998
0 -0.507768 -0.952665 1.79998
0 -0.53531 -0.952665 1.79998
0 -0.561764 -0.952665 1.79998
0 -0.587133 -0.952665 1.79998
0 -0.611426 -0.952665 1.79998
0 -0.634656 -0.952665 1.79998
0 -0.656838 -0.952665 1.79998
0 -0.677993 -0.952665 1.79998
0 -0.698143 -0.952665 1.79998
0 -0.717314 -0.952665 1.79998
0 -0.735531 -0.952665 1.79998
0 -0.752825 -0.952665 1.79998
0 -0.769225 -0.952665 1.79998
0 -0.784762 -0.952665 1.79998
0 -0.799469 -0.952665 1.79998
0 -0.813378 -0.952665 1.79998
0 -0.826521 -0.952665 1.79998
0 -0.838932 -0.952665 1.79998
0 -0.850642 -0.952665 1.79998
0 -0.861683 -0.952665 1.79998
0 -0.872087 -0.952665 1.79998
0 -0.881884 -0.952665 1.79998
0 -0.891106 -0.952665 1.79998
0 -0.89978 -0.952665 1.79998
0 -0.907935 -0.952665 1.79998
0 -0.915599 -0.952665 1.79998
0 -0.922797 -0.952665 1.79998
0 -0.929556 -0.952665 1.79998
0 -0.935899 -0.952665 1.79998
0 -0.941851 -0.952665 1.79998
0 -0.947432 -0.952665 1.79998
0 -0.952665 -0.952665 1.79998
0 -0.95757 -0.952665 1.79998
0 -0.962166 -0.952665 1.79998
0 -0.966471 -0.952665 1.79998
0 -0.970503 -0.952665 1.79998
0 -0.974278 -0.952665 1.79998
0 -0.977811 -0.952665 1.79998
0 -0.981118 -0.952665 1.79998
0 -0.984213 -0.952665 1.79998
0 -0.987108 -0.952665 1.79998
0 -0.989816 -0.952665 1.79998
0 -0.992348 -0.952665 1.79998
0 -0.994716 -0.952665 1.79999
0 -0.99693 -0.952665 1.79999
0 -0.999 -0.952665 1.79999
0 -0.02 -0.947432 1.79999
0 -0.0597753 -0.947432 1.79999
0 -0.0990586 -0.947432 1.79999
0 -0.137767 -0.947432 1.79999
0 -0.175822 -0.947432 1.79999
0 -0.213152 -0.947432 1.79999
0 -0.24969 -0.947432 1.79999
0 -0.285377 -0.947432 1.79999
0 -0.32016 -0.947432 1.79998
0 -0.353993 -0.947432 1.79998
0 -0.386836 -0.947432 1.79998
0 -0.418658 -0.947432 1.79998
0 -0.449432 -0.947432 1.79998
0 -0.47914 -0.947432 1.79998
0 -0.507768 -0.947432 1.79998
0 -0.53531 -0.947432 1.79998
0 -0.561764 -0.947432 1.79998
0 -0.587133 -0.947432 1.79998
0 -0.611426 -0.947432 1.79998
0 -0.634656 -0.947432 1.79998
0 -0.656838 -0.947432 1.79998
0 -0.677993 -0.947432 1.79998
0 -0.698143 -0.947432 1.79998
0 -0.717314 -0.947432 1.79998
0 -0.735531 -0.947432 1.79998
0 -0.752825 -0.947432 1.79998
0 -0.769225 -0.947432 1.79998
0 -0.784762 -0.947432 1.79998
0 -0.799469 -0.947432 1.79998
0 -0.813378 -0.947432 1.79998
0 -0.826521 -0.947432 1.79998
0 -0.838932 -0.947432 1.79998
0 -0.850642 -0.947432 1.79998
0 -0.861683 -0.947432 1.79998
0 -0.872087 -0.947432 1.79998
0 -0.881884 -0.947432 1.79998
0 -0.891106 -0.947432 1.79998
0 -0.89978 -0.947432 1.79998
0 -0.907935 -0.947432 1.79998
0 -0.915599 -0.947432 1.79998
0 -0.922797 -0.947432 1.79998
0 -0.929556 -0.947432 1.79998
0 -0.935899 -0.947432 1.79998
0 -0.941851 -0.947432 1.79998
0 -0.947432 -0.947432 1.79998
0 -0.952665 -0.947432 1.79998
0 -0.95757 -0.947432 1.79998
0 -0.962166 -0.947432 1.79998
0 -0.966471 -0.947432 1.79998
0 -0.970503 -0.947432 1.79998
0 -0.974278 -0.947432 1.79998
0 -0.977811 -0.947432 1.79998
0 -0.981118 -0.947432 1.79998
0 -0.984213 -0.947432 1.79998
0 -0.987108 -0.947432 1.79998
0 -0.989816 -0.947432 1.79998
0 -0.992348 -0.947432 1.79998
0 -0.994716 -0.947432 1.79999
0 -0.99693 -0.947432 1.79999
0 -0.999 -0.947432 1.79999
0 -0.02 -0.941851 1.79999
0 -0.0597753 -0.941851 1.79999
0 -0.0990586 -0.941851 1.79999
0 -0.137767 -0.941851 1.79999
0 -0.175822 -0.941851 1.79999
0 -0.213152 -0.941851 1.79999
0 -0.24969 -0.941851 1.79999
0 -0.285377 -0.941851 1.79999
0 -0.32016 -0.941851 1.79999
0 -0.353993 -0.941851 1.79998
0 -0.386836 -0.941851 1.79998
0 -0.418658 -0.941851 1.79998
0 -0.449432 -0.941851 1.79998
0 -0.47914 -0.941851 1.79998
0 -0.507768 -0.941851 1.79998
0 -0.53531 -0.941851 1.79998
0 -0.561764 -0.941851 1.79998
0 -0.587133 -0.941851 1.79998
0 -0.611426 -0.941851 1.79998
0 -0.634656 -0.941851 1.79998
0 -0.656838 -0.941851 1.79998
0 -0.677993 -0.941851 1.79998
0 -0.698143 -0.941851 1.79998
0 -0.717314 -0.941851 1.79998
0 -0.735531 -0.941851 1.79998
0 -0.752825 -0.941851 1.79998
0 -0.769225 -0.941851 1.79998
0 -0.784762 -0.941851 1.79998
0 -0.799469 -0.941851 1.79998
0 -0.813378 -0.941851 1.79998
0 -0.826521 -0.941851 1.79998
0 -0.838932 -0.941851 1.79998
0 -0.850642 -0.941851 1.79998
0 -0.861683 -0.941851 1.79998
0 -0.872087 -0.941851 1.79998
0 -0.881884 -0.941851 1.79998
0 -0.891106 -0.941851 1.79998
0 -0.89978 -0.941851 1.79998
0 -0.907935 -0.941851 1.79998
0 -0.915599 -0.941851 1.79998
0 -0.922797 -0.941851 1.79998
0 -0.929556 -0.941851 1.79998
0 -0.935899 -0.941851 1.79998
0 -0.941851 -0.941851 1.79998
0 -0.947432 -0.941851 1.79998
0 -0.952665 -0.941851 1.79998
0 -0.95757 -0.941851 1.79998
0 -0.962166 -0.941851 1.79998
0 -0.966471 -0.941851 1.79998
0 -0.970503 -0.941851 1.79998
0 -0.974278 -0.941851 1.79998
0 -0.977811 -0.941851 1.79998
0 -0.981118 -0.941851 1.79998
0 -0.984213 -0.941851 1.79998
0 -0.987108 -0.941851 1.79998