# g3_  FACE_DATA 3600
# x y z  g3_
0 -0.02 -0.999 -1.87793e-05
0 -0.0597753 -0.999 -1.87793e-05
0 -0.0990586 -0.999 -1.87793e-05
0 -0.137767 -0.999 -1.87793e-05
0 -0.175822 -0.999 -1.87793e-05
0 -0.213152 -0.999 -1.87793e-05
0 -0.24969 -0.999 -1.87793e-05
0 -0.285377 -0.999 -1.87793e-05
0 -0.32016 -0.999 -1.87793e-05
0 -0.353993 -0.999 -1.87793e-05
0 -0.386836 -0.999 -1.87793e-05
0 -0.418658 -0.999 -1.87793e-05
0 -0.449432 -0.999 -1.87793e-05
0 -0.47914 -0.999 -1.87793e-05
0 -0.507768 -0.999 -1.87793e-05
0 -0.53531 -0.999 -1.87793e-05
0 -0.561764 -0.999 -1.87793e-05
0 -0.587133 -0.999 -1.87793e-05
0 -0.611426 -0.999 -1.87793e-05
0 -0.634656 -0.999 -1.87793e-05
0 -0.656838 -0.999 -1.87793e-05
0 -0.677993 -0.999 -1.87793e-05
0 -0.698143 -0.999 -1.87793e-05
0 -0.717314 -0.999 -1.87793e-05
0 -0.735531 -0.999 -1.87793e-05
0 -0.752825 -0.999 -1.87793e-05
0 -0.769225 -0.999 -1.87793e-05
0 -0.784762 -0.999 -1.87793e-05
0 -0.799469 -0.999 -1.87793e-05
0 -0.813378 -0.999 -1.87793e-05
0 -0.826521 -0.999 -1.87793e-05
0 -0.838932 -0.999 -1.87793e-05
0 -0.850642 -0.999 -1.87793e-05
0 -0.861683 -0.999 -1.87793e-05
0 -0.872087 -0.999 -1.87793e-05
0 -0.881884 -0.999 -1.87793e-05
0 -0.891106 -0.999 -1.87793e-05
0 -0.89978 -0.999 -1.87793e-05
0 -0.907935 -0.999 -1.87793e-05
0 -0.915599 -0.999 -1.87793e-05
0 -0.922797 -0.999 -1.87793e-05
0 -0.929556 -0.999 -1.87793e-05
0 -0.935899 -0.999 -1.87793e-05
0 -0.941851 -0.999 -1.87793e-05
0 -0.947432 -0.999 -1.87793e-05
0 -0.952665 -0.999 -1.87793e-05
0 -0.95757 -0.999 -1.87793e-05
0 -0.962166 -0.999 -1.87793e-05
0 -0.966471 -0.999 -1.87793e-05
0 -0.970503 -0.999 -1.87793e-05
0 -0.974278 -0.999 -1.87793e-05
0 -0.977811 -0.999 -1.87793e-05
0 -0.981118 -0.999 -1.87793e-05
0 -0.984213 -0.999 -1.87793e-05
0 -0.987108 -0.999 -1.87793e-05
0 -0.989816 -0.999 -1.87793e-05
0 -0.992348 -0.999 -1.87793e-05
0 -0.994716 -0.999 -1.87793e-05
0 -0.99693 -0.999 -1.87793e-05
0 -0.999 -0.999 -1.87793e-05
0 -0.02 -0.99693 -1.87793e-05
0 -0.0597753 -0.99693 -1.87793e-05
0 -0.0990586 -0.99693 -1.87793e-05
0 -0.137767 -0.99693 -1.87793e-05
0 -0.175822 -0.99693 -1.87793e-05
0 -0.213152 -0.99693 -1.87793e-05
0 -0.24969 -0.99693 -1.87793e-05
0 -0.285377 -0.99693 -1.87793e-05
0 -0.32016 -0.99693 -1.87793e-05
0 -0.353993 -0.99693 -1.87793e-05
0 -0.386836 -0.99693 -1.87793e-05
0 -0.418658 -0.99693 -1.87793e-05
0 -0.449432 -0.99693 -1.87793e-05
0 -0.47914 -0.99693 -1.87793e-05
0 -0.507768 -0.99693 -1.87793e-05
0 -0.53531 -0.99693 -1.87793e-05
0 -0.561764 -0.99693 -1.87793e-05
0 -0.587133 -0.99693 -1.87793e-05
0 -0.611426 -0.99693 -1.87793e-05
0 -0.634656 -0.99693 -1.87793e-05
0 -0.656838 -0.99693 -1.87793e-05
0 -0.677993 -0.99693 -1.87793e-05
0 -0.698143 -0.99693 -1.87793e-05
0 -0.717314 -0.99693 -1.87793e-05
0 -0.735531 -0.99693 -1.87793e-05
0 -0.752825 -0.99693 -1.87793e-05
0 -0.769225 -0.99693 -1.87793e-05
0 -0.784762 -0.99693 -1.87793e-05
0 -0.799469 -0.99693 -1.87793e-05
0 -0.813378 -0.99693 -1.87793e-05
0 -0.826521 -0.99693 -1.87793e-05
0 -0.838932 -0.99693 -1.87793e-05
0 -0.850642 -0.99693 -1.87793e-05
0 -0.861683 -0.99693 -1.87793e-05
0 -0.872087 -0.99693 -1.87793e-05
0 -0.881884 -0.99693 -1.87793e-05
0 -0.891106 -0.99693 -1.87793e-05
0 -0.89978 -0.99693 -1.87793e-05
0 -0.907935 -0.99693 -1.87793e-05
0 -0.915599 -0.99693 -1.87793e-05
0 -0.922797 -0.99693 -1.87793e-05
0 -0.929556 -0.99693 -1.87793e-05
0 -0.935899 -0.99693 -1.87793e-05
0 -0.941851 -0.99693 -1.87793e-05
0 -0.947432 -0.99693 -1.87793e-05
0 -0.952665 -0.99693 -1.87793e-05
0 -0.95757 -0.99693 -1.87793e-05
0 -0.962166 -0.99693 -1.87793e-05
0 -0.966471 -0.99693 -1.87793e-05
0 -0.970503 -0.99693 -1.87793e-05
0 -0.974278 -0.99693 -1.87793e-05
0 -0.977811 -0.99693 -1.87793e-05
0 -0.981118 -0.99693 -1.87793e-05
0 -0.984213 -0.99693 -1.87793e-05
0 -0.987108 -0.99693 -1.87793e-05
0 -0.989816 -0.99693 -1.87793e-05
0 -0.992348 -0.99693 -1.87793e-05
0 -0.994716 -0.99693 -1.87793e-05
0 -0.99693 -0.99693 -1.87793e-05
0 -0.999 -0.99693 -1.87793e-05
0 -0.02 -0.994716 -1.87793e-05
0 -0.0597753 -0.994716 -1.87793e-05
0 -0.0990586 -0.994716 -1.87793e-05
0 -0.137767 -0.994716 -1.87794e-05
0 -0.175822 -0.994716 -1.878e-05
0 -0.213152 -0.994716 -1.87805e-05
0 -0.24969 -0.994716 -1.87809e-05
0 -0.285377 -0.994716 -1.87813e-05
0 -0.32016 -0.994716 -1.87816e-05
0 -0.353993 -0.994716 -1.87818e-05
0 -0.386836 -0.994716 -1.87819e-05
0 -0.418658 -0.994716 -1.87821e-05
0 -0.449432 -0.994716 -1.87822e-05
0 -0.47914 -0.994716 -1.87823e-05
0 -0.507768 -0.994716 -1.87823e-05
0 -0.53531 -0.994716 -1.87823e-05
0 -0.561764 -0.994716 -1.87824e-05
0 -0.587133 -0.994716 -1.87823e-05
0 -0.611426 -0.994716 -1.87823e-05
0 -0.634656 -0.994716 -1.87822e-05
0 -0.656838 -0.994716 -1.87822e-05
0 -0.677993 -0.994716 -1.87821e-05
0 -0.698143 -0.994716 -1.87819e-05
0 -0.717314 -0.994716 -1.87818e-05
0 -0.735531 -0.994716 -1.87816e-05
0 -0.752825 -0.994716 -1.87813e-05
0 -0.769225 -0.994716 -1.8781e-05
0 -0.784762 -0.994716 -1.87807e-05
0 -0.799469 -0.994716 -1.87803e-05
0 -0.813378 -0.994716 -1.87799e-05
0 -0.826521 -0.994716 -1.87795e-05
0 -0.838932 -0.994716 -1.87793e-05
0 -0.850642 -0.994716 -1.87793e-05
0 -0.861683 -0.994716 -1.87793e-05
0 -0.872087 -0.994716 -1.87793e-05
0 -0.881884 -0.994716 -1.87793e-05
0 -0.891106 -0.994716 -1.87793e-05
0 -0.89978 -0.994716 -1.87793e-05
0 -0.907935 -0.994716 -1.87793e-05
0 -0.915599 -0.994716 -1.87793e-05
0 -0.922797 -0.994716 -1.87793e-05
0 -0.929556 -0.994716 -1.87793e-05
0 -0.935899 -0.994716 -1.87793e-05
0 -0.941851 -0.994716 -1.87793e-05
0 -0.947432 -0.994716 -1.87793e-05
0 -0.952665 -0.994716 -1.87793e-05
0 -0.95757 -0.994716 -1.87793e-05
0 -0.962166 -0.994716 -1.87793e-05
0 -0.966471 -0.994716 -1.87793e-05
0 -0.970503 -0.994716 -1.87793e-05
0 -0.974278 -0.994716 -1.87793e-05
0 -0.977811 -0.994716 -1.87793e-05
0 -0.981118 -0.994716 -1.87793e-05
0 -0.984213 -0.994716 -1.87793e-05
0 -0.987108 -0.994716 -1.87793e-05
0 -0.989816 -0.994716 -1.87793e-05
0 -0.992348 -0.994716 -1.87793e-05
0 -0.994716 -0.994716 -1.87793e-05
0 -0.99693 -0.994716 -1.87793e-05
0 -0.999 -0.994716 -1.87793e-05
0 -0.02 -0.992348 -1.88043e-05
0 -0.0597753 -0.992348 -1.88046e-05
0 -0.0990586 -0.992348 -1.8805e-05
0 -0.137767 -0.992348 -1.88054e-05
0 -0.175822 -0.992348 -1.88057e-05
0 -0.213152 -0.992348 -1.8806e-05
0 -0.24969 -0.992348 -1.88062e-05
0 -0.285377 -0.992348 -1.88064e-05
0 -0.32016 -0.992348 -1.88065e-05
0 -0.353993 -0.992348 -1.88066e-05
0 -0.386836 -0.992348 -1.88066e-05
0 -0.418658 -0.992348 -1.88067e-05
0 -0.449432 -0.992348 -1.88067e-05
0 -0.47914 -0.992348 -1.88068e-05
0 -0.507768 -0.992348 -1.88068e-05
0 -0.53531 -0.992348 -1.88068e-05
0 -0.561764 -0.992348 -1.88068e-05
0 -0.587133 -0.992348 -1.88069e-05
0 -0.611426 -0.992348 -1.88069e-05
0 -0.634656 -0.992348 -1.88069e-05
0 -0.656838 -0.992348 -1.88069e-05
0 -0.677993 -0.992348 -1.88069e-05
0 -0.698143 -0.992348 -1.88069e-05
0 -0.717314 -0.992348 -1.88068e-05
0 -0.735531 -0.992348 -1.88068e-05
0 -0.752825 -0.992348 -1.88067e-05
0 -0.769225 -0.992348 -1.88067e-05
0 -0.784762 -0.992348 -1.88066e-05
0 -0.799469 -0.992348 -1.88065e-05
0 -0.813378 -0.992348 -1.88064e-05
0 -0.826521 -0.992348 -1.88062e-05
0 -0.838932 -0.992348 -1.88061e-05
0 -0.850642 -0.992348 -1.88059e-05
0 -0.861683 -0.992348 -1.88057e-05
0 -0.872087 -0.992348 -1.88055e-05
0 -0.881884 -0.992348 -1.88053e-05
0 -0.891106 -0.992348 -1.88051e-05
0 -0.89978 -0.992348 -1.88048e-05
0 -0.907935 -0.992348 -1.88046e-05
0 -0.915599 -0.992348 -1.88043e-05
0 -0.922797 -0.992348 -1.8804e-05
0 -0.929556 -0.992348 -1.88037e-05
0 -0.935899 -0.992348 -1.88034e-05
0 -0.941851 -0.992348 -1.88031e-05
0 -0.947432 -0.992348 -1.88027e-05
0 -0.952665 -0.992348 -1.88022e-05
0 -0.95757 -0.992348 -1.88016e-05
0 -0.962166 -0.992348 -1.88008e-05
0 -0.966471 -0.992348 -1.87997e-05
0 -0.970503 -0.992348 -1.87981e-05
0 -0.974278 -0.992348 -1.87958e-05
0 -0.977811 -0.992348 -1.87926e-05
0 -0.981118 -0.992348 -1.8788e-05
0 -0.984213 -0.992348 -1.87818e-05
0 -0.987108 -0.992348 -1.87793e-05
0 -0.989816 -0.992348 -1.87793e-05
0 -0.992348 -0.992348 -1.87793e-05
0 -0.994716 -0.992348 -1.87793e-05
0 -0.99693 -0.992348 -1.87793e-05
0 -0.999 -0.992348 -1.87793e-05
0 -0.02 -0.989816 -1.88102e-05
0 -0.0597753 -0.989816 -1.88105e-05
0 -0.0990586 -0.989816 -1.88109e-05
0 -0.137767 -0.989816 -1.88114e-05
0 -0.175822 -0.989816 -1.88117e-05
0 -0.213152 -0.989816 -1.8812e-05
0 -0.24969 -0.989816 -1.88122e-05
0 -0.285377 -0.989816 -1.88123e-05
0 -0.32016 -0.989816 -1.88124e-05
0 -0.353993 -0.989816 -1.88124e-05
0 -0.386836 -0.989816 -1.88125e-05
0 -0.418658 -0.989816 -1.88125e-05
0 -0.449432 -0.989816 -1.88125e-05
0 -0.47914 -0.989816 -1.88126e-05
0 -0.507768 -0.989816 -1.88126e-05
0 -0.53531 -0.989816 -1.88127e-05
0 -0.561764 -0.989816 -1.88127e-05
0 -0.587133 -0.989816 -1.88127e-05
0 -0.611426 -0.989816 -1.88128e-05
0 -0.634656 -0.989816 -1.88129e-05
0 -0.656838 -0.989816 -1.88129e-05
0 -0.677993 -0.989816 -1.8813e-05
0 -0.698143 -0.989816 -1.8813e-05
0 -0.717314 -0.989816 -1.88131e-05
0 -0.735531 -0.989816 -1.88132e-05
0 -0.752825 -0.989816 -1.88132e-05
0 -0.769225 -0.989816 -1.88133e-05
0 -0.784762 -0.989816 -1.88133e-05
0 -0.799469 -0.989816 -1.88133e-05
0 -0.813378 -0.989816 -1.88134e-05
0 -0.826521 -0.989816 -1.88134e-05
0 -0.838932 -0.989816 -1.88134e-05
0 -0.850642 -0.989816 -1.88134e-05
0 -0.861683 -0.989816 -1.88134e-05
0 -0.872087 -0.989816 -1.88135e-05
0 -0.881884 -0.989816 -1.88135e-05
0 -0.891106 -0.989816 -1.88135e-05
0 -0.89978 -0.989816 -1.88136e-05
0 -0.907935 -0.989816 -1.88137e-05
0 -0.915599 -0.989816 -1.88138e-05
0 -0.922797 -0.989816 -1.8814e-05
0 -0.929556 -0.989816 -1.88142e-05
0 -0.935899 -0.989816 -1.88144e-05
0 -0.941851 -0.989816 -1.88147e-05
0 -0.947432 -0.989816 -1.88151e-05
0 -0.952665 -0.989816 -1.88156e-05
0 -0.95757 -0.989816 -1.88161e-05
0 -0.962166 -0.989816 -1.88167e-05
0 -0.966471 -0.989816 -1.88172e-05
0 -0.970503 -0.989816 -1.88176e-05
0 -0.974278 -0.989816 -1.88178e-05
0 -0.977811 -0.989816 -1.88174e-05
0 -0.981118 -0.989816 -1.88163e-05
0 -0.984213 -0.989816 -1.88136e-05
0 -0.987108 -0.989816 -1.88072e-05
0 -0.989816 -0.989816 -1.87923e-05
0 -0.992348 -0.989816 -1.87793e-05
0 -0.994716 -0.989816 -1.87793e-05
0 -0.99693 -0.989816 -1.87793e-05
0 -0.999 -0.989816 -1.87793e-05
0 -0.02 -0.987108 -1.88084e-05
0 -0.0597753 -0.987108 -1.88087e-05
0 -0.0990586 -0.987108 -1.88091e-05
0 -0.137767 -0.987108 -1.88096e-05
0 -0.175822 -0.987108 -1.881e-05
0 -0.213152 -0.987108 -1.88103e-05
0 -0.24969 -0.987108 -1.88105e-05
0 -0.285377 -0.987108 -1.88107e-05
0 -0.32016 -0.987108 -1.88107e-05
0 -0.353993 -0.987108 -1.88108e-05
0 -0.386836 -0.987108 -1.88109e-05
0 -0.418658 -0.987108 -1.88109e-05
0 -0.449432 -0.987108 -1.8811e-05
0 -0.47914 -0.987108 -1.8811e-05
0 -0.507768 -0.987108 -1.88111e-05
0 -0.53531 -0.987108 -1.88111e-05
0 -0.561764 -0.987108 -1.88112e-05
0 -0.587133 -0.987108 -1.88113e-05
0 -0.611426 -0.987108 -1.88114e-05
0 -0.634656 -0.987108 -1.88116e-05
0 -0.656838 -0.987108 -1.88117e-05
0 -0.677993 -0.987108 -1.88119e-05
0 -0.698143 -0.987108 -1.88121e-05
0 -0.717314 -0.987108 -1.88122e-05
0 -0.735531 -0.987108 -1.88124e-05
0 -0.752825 -0.987108 -1.88126e-05
0 -0.769225 -0.987108 -1.88128e-05
0 -0.784762 -0.987108 -1.8813e-05
0 -0.799469 -0.987108 -1.88132e-05
0 -0.813378 -0.987108 -1.88134e-05
0 -0.826521 -0.987108 -1.88136e-05
0 -0.838932 -0.987108 -1.88139e-05
0 -0.850642 -0.987108 -1.88141e-05
0 -0.861683 -0.987108 -1.88144e-05
0 -0.872087 -0.987108 -1.88147e-05
0 -0.881884 -0.987108 -1.88151e-05
0 -0.891106 -0.987108 -1.88155e-05
0 -0.89978 -0.987108 -1.8816e-05
0 -0.907935 -0.987108 -1.88166e-05
0 -0.915599 -0.987108 -1.88173e-05
0 -0.922797 -0.987108 -1.88182e-05
0 -0.929556 -0.987108 -1.88191e-05
0 -0.935899 -0.987108 -1.88202e-05
0 -0.941851 -0.987108 -1.88215e-05
0 -0.947432 -0.987108 -1.8823e-05
0 -0.952665 -0.987108 -1.88246e-05
0 -0.95757 -0.987108 -1.88261e-05
0 -0.962166 -0.987108 -1.88276e-05
0 -0.966471 -0.987108 -1.88288e-05
0 -0.970503 -0.987108 -1.88297e-05
0 -0.974278 -0.987108 -1.88303e-05
0 -0.977811 -0.987108 -1.88304e-05
0 -0.981118 -0.987108 -1.88298e-05
0 -0.984213 -0.987108 -1.88279e-05
0 -0.987108 -0.987108 -1.88221e-05
0 -0.989816 -0.987108 -1.88072e-05
0 -0.992348 -0.987108 -1.87793e-05
0 -0.994716 -0.987108 -1.87793e-05
0 -0.99693 -0.987108 -1.87793e-05
0 -0.999 -0.987108 -1.87793e-05
0 -0.02 -0.984213 -1.88066e-05
0 -0.0597753 -0.984213 -1.88069e-05
0 -0.0990586 -0.984213 -1.88074e-05
0 -0.137767 -0.984213 -1.8808e-05
0 -0.175822 -0.984213 -1.88086e-05
0 -0.213152 -0.984213 -1.8809e-05
0 -0.24969 -0.984213 -1.88093e-05
0 -0.285377 -0.984213 -1.88095e-05
0 -0.32016 -0.984213 -1.88097e-05
0 -0.353993 -0.984213 -1.88098e-05
0 -0.386836 -0.984213 -1.88099e-05
0 -0.418658 -0.984213 -1.881e-05
0 -0.449432 -0.984213 -1.88101e-05
0 -0.47914 -0.984213 -1.88102e-05
0 -0.507768 -0.984213 -1.88103e-05
0 -0.53531 -0.984213 -1.88104e-05
0 -0.561764 -0.984213 -1.88106e-05
0 -0.587133 -0.984213 -1.88107e-05
0 -0.611426 -0.984213 -1.88109e-05
0 -0.634656 -0.984213 -1.88111e-05
0 -0.656838 -0.984213 -1.88113e-05
0 -0.677993 -0.984213 -1.88116e-05
0 -0.698143 -0.984213 -1.88118e-05
0 -0.717314 -0.984213 -1.88121e-05
0 -0.735531 -0.984213 -1.88124e-05
0 -0.752825 -0.984213 -1.88127e-05
0 -0.769225 -0.984213 -1.88131e-05
0 -0.784762 -0.984213 -1.88134e-05
0 -0.799469 -0.984213 -1.88137e-05
0 -0.813378 -0.984213 -1.88141e-05
0 -0.826521 -0.984213 -1.88145e-05
0 -0.838932 -0.984213 -1.8815e-05
0 -0.850642 -0.984213 -1.88155e-05
0 -0.861683 -0.984213 -1.8816e-05
0 -0.872087 -0.984213 -1.88167e-05
0 -0.881884 -0.984213 -1.88174e-05
0 -0.891106 -0.984213 -1.88183e-05
0 -0.89978 -0.984213 -1.88193e-05
0 -0.907935 -0.984213 -1.88205e-05
0 -0.915599 -0.984213 -1.88218e-05
0 -0.922797 -0.984213 -1.88232e-05
0 -0.929556 -0.984213 -1.88249e-05
0 -0.935899 -0.984213 -1.88267e-05
0 -0.941851 -0.984213 -1.88285e-05
0 -0.947432 -0.984213 -1.88302e-05
0 -0.952665 -0.984213 -1.88318e-05
0 -0.95757 -0.984213 -1.88338e-05
0 -0.962166 -0.984213 -1.88358e-05
0 -0.966471 -0.984213 -1.88371e-05
0 -0.970503 -0.984213 -1.88377e-05
0 -0.974278 -0.984213 -1.88375e-05
0 -0.977811 -0.984213 -1.88367e-05
0 -0.981118 -0.984213 -1.88354e-05
0 -0.984213 -0.984213 -1.88331e-05
0 -0.987108 -0.984213 -1.88279e-05
0 -0.989816 -0.984213 -1.88136e-05
0 -0.992348 -0.984213 -1.87818e-05
0 -0.994716 -0.984213 -1.87793e-05
0 -0.99693 -0.984213 -1.87793e-05
0 -0.999 -0.984213 -1.87793e-05
0 -0.02 -0.981118 -1.88058e-05
0 -0.0597753 -0.981118 -1.88061e-05
0 -0.0990586 -0.981118 -1.88067e-05
0 -0.137767 -0.981118 -1.88074e-05
0 -0.175822 -0.981118 -1.8808e-05
0 -0.213152 -0.981118 -1.88085e-05
0 -0.24969 -0.981118 -1.88089e-05
0 -0.285377 -0.981118 -1.88092e-05
0 -0.32016 -0.981118 -1.88094e-05
0 -0.353993 -0.981118 -1.88095e-05
0 -0.386836 -0.981118 -1.88097e-05
0 -0.418658 -0.981118 -1.88098e-05
0 -0.449432 -0.981118 -1.881e-05
0 -0.47914 -0.981118 -1.88101e-05
0 -0.507768 -0.981118 -1.88103e-05
0 -0.53531 -0.981118 -1.88105e-05
0 -0.561764 -0.981118 -1.88107e-05
0 -0.587133 -0.981118 -1.88109e-05
0 -0.611426 -0.981118 -1.88112e-05
0 -0.634656 -0.981118 -1.88115e-05
0 -0.656838 -0.981118 -1.88118e-05
0 -0.677993 -0.981118 -1.88122e-05
0 -0.698143 -0.981118 -1.88126e-05
0 -0.717314 -0.981118 -1.88131e-05
0 -0.735531 -0.981118 -1.88136e-05
0 -0.752825 -0.981118 -1.88141e-05
0 -0.769225 -0.981118 -1.88146e-05
0 -0.784762 -0.981118 -1.88151e-05
0 -0.799469 -0.981118 -1.88157e-05
0 -0.813378 -0.981118 -1.88163e-05
0 -0.826521 -0.981118 -1.8817e-05
0 -0.838932 -0.981118 -1.88177e-05
0 -0.850642 -0.981118 -1.88186e-05
0 -0.861683 -0.981118 -1.88195e-05
0 -0.872087 -0.981118 -1.88205e-05
0 -0.881884 -0.981118 -1.88217e-05
0 -0.891106 -0.981118 -1.8823e-05
0 -0.89978 -0.981118 -1.88245e-05
0 -0.907935 -0.981118 -1.8826e-05
0 -0.915599 -0.981118 -1.88276e-05
0 -0.922797 -0.981118 -1.88293e-05
0 -0.929556 -0.981118 -1.8831e-05
0 -0.935899 -0.981118 -1.88325e-05
0 -0.941851 -0.981118 -1.88352e-05
0 -0.947432 -0.981118 -1.88375e-05
0 -0.952665 -0.981118 -1.88394e-05
0 -0.95757 -0.981118 -1.88407e-05
0 -0.962166 -0.981118 -1.88412e-05
0 -0.966471 -0.981118 -1.88409e-05
0 -0.970503 -0.981118 -1.88399e-05
0 -0.974278 -0.981118 -1.88385e-05
0 -0.977811 -0.981118 -1.88372e-05
0 -0.981118 -0.981118 -1.88367e-05
0 -0.984213 -0.981118 -1.88354e-05
0 -0.987108 -0.981118 -1.88298e-05
0 -0.989816 -0.981118 -1.88163e-05
0 -0.992348 -0.981118 -1.8788e-05
0 -0.994716 -0.981118 -1.87793e-05
0 -0.99693 -0.981118 -1.87793e-05
0 -0.999 -0.981118 -1.87793e-05
0 -0.02 -0.977811 -1.88044e-05
0 -0.0597753 -0.977811 -1.88047e-05
0 -0.0990586 -0.977811 -1.88053e-05
0 -0.137767 -0.977811 -1.8806e-05
0 -0.175822 -0.977811 -1.88066e-05
0 -0.213152 -0.977811 -1.88072e-05
0 -0.24969 -0.977811 -1.88077e-05
0 -0.285377 -0.977811 -1.88081e-05
0 -0.32016 -0.977811 -1.88083e-05
0 -0.353993 -0.977811 -1.88086e-05
0 -0.386836 -0.977811 -1.88088e-05
0 -0.418658 -0.977811 -1.8809e-05
0 -0.449432 -0.977811 -1.88092e-05
0 -0.47914 -0.977811 -1.88094e-05
0 -0.507768 -0.977811 -1.88096e-05
0 -0.53531 -0.977811 -1.88099e-05
0 -0.561764 -0.977811 -1.88102e-05
0 -0.587133 -0.977811 -1.88105e-05
0 -0.611426 -0.977811 -1.88109e-05
0 -0.634656 -0.977811 -1.88113e-05
0 -0.656838 -0.977811 -1.88118e-05
0 -0.677993 -0.977811 -1.88123e-05
0 -0.698143 -0.977811 -1.8813e-05
0 -0.717314 -0.977811 -1.88136e-05
0 -0.735531 -0.977811 -1.88143e-05
0 -0.752825 -0.977811 -1.8815e-05
0 -0.769225 -0.977811 -1.88158e-05
0 -0.784762 -0.977811 -1.88166e-05
0 -0.799469 -0.977811 -1.88174e-05
0 -0.813378 -0.977811 -1.88183e-05
0 -0.826521 -0.977811 -1.88193e-05
0 -0.838932 -0.977811 -1.88204e-05
0 -0.850642 -0.977811 -1.88216e-05
0 -0.861683 -0.977811 -1.88229e-05
0 -0.872087 -0.977811 -1.88243e-05
0 -0.881884 -0.977811 -1.88258e-05
0 -0.891106 -0.977811 -1.88273e-05
0 -0.89978 -0.977811 -1.88289e-05
0 -0.907935 -0.977811 -1.88305e-05
0 -0.915599 -0.977811 -1.88321e-05
0 -0.922797 -0.977811 -1.88343e-05
0 -0.929556 -0.977811 -1.88369e-05
0 -0.935899 -0.977811 -1.88392e-05
0 -0.941851 -0.977811 -1.8841e-05
0 -0.947432 -0.977811 -1.88423e-05
0 -0.952665 -0.977811 -1.88429e-05
0 -0.95757 -0.977811 -1.88428e-05
0 -0.962166 -0.977811 -1.88419e-05
0 -0.966471 -0.977811 -1.88402e-05
0 -0.970503 -0.977811 -1.88379e-05
0 -0.974278 -0.977811 -1.88362e-05
0 -0.977811 -0.977811 -1.88361e-05
0 -0.981118 -0.977811 -1.88373e-05
0 -0.984213 -0.977811 -1.88367e-05
0 -0.987108 -0.977811 -1.88304e-05
0 -0.989816 -0.977811 -1.88174e-05
0 -0.992348 -0.977811 -1.87926e-05
0 -0.994716 -0.977811 -1.87793e-05
0 -0.99693 -0.977811 -1.87793e-05
0 -0.999 -0.977811 -1.87793e-05
0 -0.02 -0.974278 -1.88031e-05
0 -0.0597753 -0.974278 -1.88034e-05
0 -0.0990586 -0.974278 -1.8804e-05
0 -0.137767 -0.974278 -1.88047e-05
0 -0.175822 -0.974278 -1.88054e-05
0 -0.213152 -0.974278 -1.88061e-05
0 -0.24969 -0.974278 -1.88066e-05
0 -0.285377 -0.974278 -1.8807e-05
0 -0.32016 -0.974278 -1.88074e-05
0 -0.353993 -0.974278 -1.88077e-05
0 -0.386836 -0.974278 -1.8808e-05
0 -0.418658 -0.974278 -1.88082e-05
0 -0.449432 -0.974278 -1.88085e-05
0 -0.47914 -0.974278 -1.88088e-05
0 -0.507768 -0.974278 -1.88091e-05
0 -0.53531 -0.974278 -1.88094e-05
0 -0.561764 -0.974278 -1.88098e-05
0 -0.587133 -0.974278 -1.88103e-05
0 -0.611426 -0.974278 -1.88108e-05
0 -0.634656 -0.974278 -1.88114e-05
0 -0.656838 -0.974278 -1.88121e-05
0 -0.677993 -0.974278 -1.88129e-05
0 -0.698143 -0.974278 -1.88137e-05
0 -0.717314 -0.974278 -1.88146e-05
0 -0.735531 -0.974278 -1.88155e-05
0 -0.752825 -0.974278 -1.88165e-05
0 -0.769225 -0.974278 -1.88175e-05
0 -0.784762 -0.974278 -1.88186e-05
0 -0.799469 -0.974278 -1.88198e-05
0 -0.813378 -0.974278 -1.8821e-05
0 -0.826521 -0.974278 -1.88223e-05
0 -0.838932 -0.974278 -1.88236e-05
0 -0.850642 -0.974278 -1.88251e-05
0 -0.861683 -0.974278 -1.88266e-05
0 -0.872087 -0.974278 -1.88282e-05
0 -0.881884 -0.974278 -1.88297e-05
0 -0.891106 -0.974278 -1.88312e-05
0 -0.89978 -0.974278 -1.88328e-05
0 -0.907935 -0.974278 -1.88354e-05
0 -0.915599 -0.974278 -1.88378e-05
0 -0.922797 -0.974278 -1.88399e-05
0 -0.929556 -0.974278 -1.88417e-05
0 -0.935899 -0.974278 -1.8843e-05
0 -0.941851 -0.974278 -1.88438e-05
0 -0.947432 -0.974278 -1.88439e-05
0 -0.952665 -0.974278 -1.88433e-05
0 -0.95757 -0.974278 -1.88418e-05
0 -0.962166 -0.974278 -1.88394e-05
0 -0.966471 -0.974278 -1.88363e-05
0 -0.970503 -0.974278 -1.88339e-05
0 -0.974278 -0.974278 -1.88339e-05
0 -0.977811 -0.974278 -1.88362e-05
0 -0.981118 -0.974278 -1.88385e-05
0 -0.984213 -0.974278 -1.88375e-05
0 -0.987108 -0.974278 -1.88303e-05
0 -0.989816 -0.974278 -1.88178e-05
0 -0.992348 -0.974278 -1.87958e-05
0 -0.994716 -0.974278 -1.87793e-05
0 -0.99693 -0.974278 -1.87793e-05
0 -0.999 -0.974278 -1.87793e-05
0 -0.02 -0.970503 -1.88019e-05
0 -0.0597753 -0.970503 -1.88022e-05
0 -0.0990586 -0.970503 -1.88027e-05
0 -0.137767 -0.970503 -1.88035e-05
0 -0.175822 -0.970503 -1.88042e-05
0 -0.213152 -0.970503 -1.88049e-05
0 -0.24969 -0.970503 -1.88055e-05
0 -0.285377 -0.970503 -1.8806e-05
0 -0.32016 -0.970503 -1.88064e-05
0 -0.353993 -0.970503 -1.88068e-05
0 -0.386836 -0.970503 -1.88071e-05
0 -0.418658 -0.970503 -1.88075e-05
0 -0.449432 -0.970503 -1.88078e-05
0 -0.47914 -0.970503 -1.88082e-05
0 -0.507768 -0.970503 -1.88086e-05
0 -0.53531 -0.970503 -1.8809e-05
0 -0.561764 -0.970503 -1.88096e-05
0 -0.587133 -0.970503 -1.88102e-05
0 -0.611426 -0.970503 -1.88109e-05
0 -0.634656 -0.970503 -1.88117e-05
0 -0.656838 -0.970503 -1.88126e-05
0 -0.677993 -0.970503 -1.88136e-05
0 -0.698143 -0.970503 -1.88147e-05
0 -0.717314 -0.970503 -1.88159e-05
0 -0.735531 -0.970503 -1.88171e-05
0 -0.752825 -0.970503 -1.88184e-05
0 -0.769225 -0.970503 -1.88197e-05
0 -0.784762 -0.970503 -1.88211e-05
0 -0.799469 -0.970503 -1.88225e-05
0 -0.813378 -0.970503 -1.8824e-05
0 -0.826521 -0.970503 -1.88255e-05
0 -0.838932 -0.970503 -1.8827e-05
0 -0.850642 -0.970503 -1.88286e-05
0 -0.861683 -0.970503 -1.88301e-05
0 -0.872087 -0.970503 -1.88316e-05
0 -0.881884 -0.970503 -1.88333e-05
0 -0.891106 -0.970503 -1.88359e-05
0 -0.89978 -0.970503 -1.88382e-05
0 -0.907935 -0.970503 -1.88403e-05
0 -0.915599 -0.970503 -1.8842e-05
0 -0.922797 -0.970503 -1.88433e-05
0 -0.929556 -0.970503 -1.88442e-05
0 -0.935899 -0.970503 -1.88445e-05
0 -0.941851 -0.970503 -1.88442e-05
0 -0.947432 -0.970503 -1.88432e-05
0 -0.952665 -0.970503 -1.88412e-05
0 -0.95757 -0.970503 -1.88381e-05
0 -0.962166 -0.970503 -1.88344e-05
0 -0.966471 -0.970503 -1.8832e-05
0 -0.970503 -0.970503 -1.88319e-05
0 -0.974278 -0.970503 -1.88339e-05
0 -0.977811 -0.970503 -1.88379e-05
0 -0.981118 -0.970503 -1.88399e-05
0 -0.984213 -0.970503 -1.88377e-05
0 -0.987108 -0.970503 -1.88297e-05
0 -0.989816 -0.970503 -1.88176e-05
0 -0.992348 -0.970503 -1.87981e-05
0 -0.994716 -0.970503 -1.87793e-05
0 -0.99693 -0.970503 -1.87793e-05
0 -0.999 -0.970503 -1.87793e-05
0 -0.02 -0.966471 -1.88007e-05
0 -0.0597753 -0.966471 -1.8801e-05
0 -0.0990586 -0.966471 -1.88015e-05
0 -0.137767 -0.966471 -1.88022e-05
0 -0.175822 -0.966471 -1.8803e-05
0 -0.213152 -0.966471 -1.88037e-05
0 -0.24969 -0.966471 -1.88044e-05
0 -0.285377 -0.966471 -1.88049e-05
0 -0.32016 -0.966471 -1.88054e-05
0 -0.353993 -0.966471 -1.88059e-05
0 -0.386836 -0.966471 -1.88063e-05
0 -0.418658 -0.966471 -1.88067e-05
0 -0.449432 -0.966471 -1.88071e-05
0 -0.47914 -0.966471 -1.88076e-05
0 -0.507768 -0.966471 -1.88082e-05
0 -0.53531 -0.966471 -1.88087e-05
0 -0.561764 -0.966471 -1.88094e-05
0 -0.587133 -0.966471 -1.88102e-05
0 -0.611426 -0.966471 -1.88112e-05
0 -0.634656 -0.966471 -1.88123e-05
0 -0.656838 -0.966471 -1.88135e-05
0 -0.677993 -0.966471 -1.88148e-05
0 -0.698143 -0.966471 -1.88162e-05
0 -0.717314 -0.966471 -1.88176e-05
0 -0.735531 -0.966471 -1.88191e-05
0 -0.752825 -0.966471 -1.88207e-05
0 -0.769225 -0.966471 -1.88223e-05
0 -0.784762 -0.966471 -1.88239e-05
0 -0.799469 -0.966471 -1.88255e-05
0 -0.813378 -0.966471 -1.88271e-05
0 -0.826521 -0.966471 -1.88287e-05
0 -0.838932 -0.966471 -1.88302e-05
0 -0.850642 -0.966471 -1.88316e-05
0 -0.861683 -0.966471 -1.88335e-05
0 -0.872087 -0.966471 -1.8836e-05
0 -0.881884 -0.966471 -1.88383e-05
0 -0.891106 -0.966471 -1.88403e-05
0 -0.89978 -0.966471 -1.8842e-05
0 -0.907935 -0.966471 -1.88434e-05
0 -0.915599 -0.966471 -1.88444e-05
0 -0.922797 -0.966471 -1.88449e-05
0 -0.929556 -0.966471 -1.88449e-05
0 -0.935899 -0.966471 -1.88442e-05
0 -0.941851 -0.966471 -1.88428e-05
0 -0.947432 -0.966471 -1.88404e-05
0 -0.952665 -0.966471 -1.88368e-05
0 -0.95757 -0.966471 -1.88325e-05
0 -0.962166 -0.966471 -1.88305e-05
0 -0.966471 -0.966471 -1.88302e-05
0 -0.970503 -0.966471 -1.8832e-05
0 -0.974278 -0.966471 -1.88363e-05
0 -0.977811 -0.966471 -1.88402e-05
0 -0.981118 -0.966471 -1.88409e-05
0 -0.984213 -0.966471 -1.88371e-05
0 -0.987108 -0.966471 -1.88288e-05
0 -0.989816 -0.966471 -1.88172e-05
0 -0.992348 -0.966471 -1.87997e-05
0 -0.994716 -0.966471 -1.87793e-05
0 -0.99693 -0.966471 -1.87793e-05
0 -0.999 -0.966471 -1.87793e-05
0 -0.02 -0.962166 -1.87995e-05
0 -0.0597753 -0.962166 -1.87998e-05
0 -0.0990586 -0.962166 -1.88004e-05
0 -0.137767 -0.962166 -1.88011e-05
0 -0.175822 -0.962166 -1.88019e-05
0 -0.213152 -0.962166 -1.88026e-05
0 -0.24969 -0.962166 -1.88033e-05
0 -0.285377 -0.962166 -1.88039e-05
0 -0.32016 -0.962166 -1.88045e-05
0 -0.353993 -0.962166 -1.8805e-05
0 -0.386836 -0.962166 -1.88055e-05
0 -0.418658 -0.962166 -1.8806e-05
0 -0.449432 -0.962166 -1.88066e-05
0 -0.47914 -0.962166 -1.88072e-05
0 -0.507768 -0.962166 -1.88078e-05
0 -0.53531 -0.962166 -1.88086e-05
0 -0.561764 -0.962166 -1.88095e-05
0 -0.587133 -0.962166 -1.88105e-05
0 -0.611426 -0.962166 -1.88118e-05
0 -0.634656 -0.962166 -1.88132e-05
0 -0.656838 -0.962166 -1.88148e-05
0 -0.677993 -0.962166 -1.88164e-05
0 -0.698143 -0.962166 -1.8818e-05
0 -0.717314 -0.962166 -1.88198e-05
0 -0.735531 -0.962166 -1.88215e-05
0 -0.752825 -0.962166 -1.88233e-05
0 -0.769225 -0.962166 -1.88251e-05
0 -0.784762 -0.962166 -1.88268e-05
0 -0.799469 -0.962166 -1.88285e-05
0 -0.813378 -0.962166 -1.88301e-05
0 -0.826521 -0.962166 -1.88315e-05
0 -0.838932 -0.962166 -1.88334e-05
0 -0.850642 -0.962166 -1.88359e-05
0 -0.861683 -0.962166 -1.88381e-05
0 -0.872087 -0.962166 -1.88402e-05
0 -0.881884 -0.962166 -1.88419e-05
0 -0.891106 -0.962166 -1.88434e-05
0 -0.89978 -0.962166 -1.88444e-05
0 -0.907935 -0.962166 -1.88451e-05
0 -0.915599 -0.962166 -1.88453e-05
0 -0.922797 -0.962166 -1.8845e-05
0 -0.929556 -0.962166 -1.88441e-05
0 -0.935899 -0.962166 -1.88423e-05
0 -0.941851 -0.962166 -1.88395e-05
0 -0.947432 -0.962166 -1.88356e-05
0 -0.952665 -0.962166 -1.88314e-05
0 -0.95757 -0.962166 -1.88291e-05
0 -0.962166 -0.962166 -1.88286e-05
0 -0.966471 -0.962166 -1.88305e-05
0 -0.970503 -0.962166 -1.88344e-05
0 -0.974278 -0.962166 -1.88394e-05
0 -0.977811 -0.962166 -1.88419e-05
0 -0.981118 -0.962166 -1.88412e-05
0 -0.984213 -0.962166 -1.88358e-05
0 -0.987108 -0.962166 -1.88276e-05
0 -0.989816 -0.962166 -1.88167e-05
0 -0.992348 -0.962166 -1.88008e-05
0 -0.994716 -0.962166 -1.87793e-05
0 -0.99693 -0.962166 -1.87793e-05
0 -0.999 -0.962166 -1.87793e-05
0 -0.02 -0.95757 -1.87984e-05
0 -0.0597753 -0.95757 -1.87987e-05
0 -0.0990586 -0.95757 -1.87993e-05
0 -0.137767 -0.95757 -1.88e-05
0 -0.175822 -0.95757 -1.88008e-05
0 -0.213152 -0.95757 -1.88016e-05
0 -0.24969 -0.95757 -1.88023e-05
0 -0.285377 -0.95757 -1.88029e-05
0 -0.32016 -0.95757 -1.88036e-05
0 -0.353993 -0.95757 -1.88041e-05
0 -0.386836 -0.95757 -1.88047e-05
0 -0.418658 -0.95757 -1.88054e-05
0 -0.449432 -0.95757 -1.8806e-05
0 -0.47914 -0.95757 -1.88068e-05
0 -0.507768 -0.95757 -1.88076e-05
0 -0.53531 -0.95757 -1.88086e-05
0 -0.561764 -0.95757 -1.88098e-05
0 -0.587133 -0.95757 -1.88111e-05
0 -0.611426 -0.95757 -1.88128e-05
0 -0.634656 -0.95757 -1.88145e-05
0 -0.656838 -0.95757 -1.88164e-05
0 -0.677993 -0.95757 -1.88183e-05
0 -0.698143 -0.95757 -1.88203e-05
0 -0.717314 -0.95757 -1.88222e-05
0 -0.735531 -0.95757 -1.88242e-05
0 -0.752825 -0.95757 -1.88261e-05
0 -0.769225 -0.95757 -1.88279e-05
0 -0.784762 -0.95757 -1.88296e-05
0 -0.799469 -0.95757 -1.88312e-05
0 -0.813378 -0.95757 -1.88329e-05
0 -0.826521 -0.95757 -1.88354e-05
0 -0.838932 -0.95757 -1.88378e-05
0 -0.850642 -0.95757 -1.88399e-05
0 -0.861683 -0.95757 -1.88417e-05
0 -0.872087 -0.95757 -1.88432e-05
0 -0.881884 -0.95757 -1.88444e-05
0 -0.891106 -0.95757 -1.88452e-05
0 -0.89978 -0.95757 -1.88456e-05
0 -0.907935 -0.95757 -1.88456e-05
0 -0.915599 -0.95757 -1.8845e-05
0 -0.922797 -0.95757 -1.88439e-05
0 -0.929556 -0.95757 -1.88418e-05
0 -0.935899 -0.95757 -1.88388e-05
0 -0.941851 -0.95757 -1.88345e-05
0 -0.947432 -0.95757 -1.88306e-05
0 -0.952665 -0.95757 -1.8828e-05
0 -0.95757 -0.95757 -1.88273e-05
0 -0.962166 -0.95757 -1.88291e-05
0 -0.966471 -0.95757 -1.88325e-05
0 -0.970503 -0.95757 -1.88381e-05
0 -0.974278 -0.95757 -1.88418e-05
0 -0.977811 -0.95757 -1.88428e-05
0 -0.981118 -0.95757 -1.88407e-05
0 -0.984213 -0.95757 -1.88338e-05
0 -0.987108 -0.95757 -1.88261e-05
0 -0.989816 -0.95757 -1.88161e-05
0 -0.992348 -0.95757 -1.88016e-05
0 -0.994716 -0.95757 -1.87793e-05
0 -0.99693 -0.95757 -1.87793e-05
0 -0.999 -0.95757 -1.87793e-05
0 -0.02 -0.952665 -1.87974e-05
0 -0.0597753 -0.952665 -1.87977e-05
0 -0.0990586 -0.952665 -1.87983e-05
0 -0.137767 -0.952665 -1.8799e-05
0 -0.175822 -0.952665 -1.87998e-05
0 -0.213152 -0.952665 -1.88006e-05
0 -0.24969 -0.952665 -1.88013e-05
0 -0.285377 -0.952665 -1.8802e-05
0 -0.32016 -0.952665 -1.88027e-05
0 -0.353993 -0.952665 -1.88034e-05
0 -0.386836 -0.952665 -1.88041e-05
0 -0.418658 -0.952665 -1.88048e-05
0 -0.449432 -0.952665 -1.88056e-05
0 -0.47914 -0.952665 -1.88065e-05
0 -0.507768 -0.952665 -1.88076e-05
0 -0.53531 -0.952665 -1.88088e-05
0 -0.561764 -0.952665 -1.88103e-05
0 -0.587133 -0.952665 -1.88121e-05
0 -0.611426 -0.952665 -1.88141e-05
0 -0.634656 -0.952665 -1.88162e-05
0 -0.656838 -0.952665 -1.88184e-05
0 -0.677993 -0.952665 -1.88206e-05
0 -0.698143 -0.952665 -1.88227e-05
0 -0.717314 -0.952665 -1.88249e-05
0 -0.735531 -0.952665 -1.88269e-05
0 -0.752825 -0.952665 -1.88288e-05
0 -0.769225 -0.952665 -1.88306e-05
0 -0.784762 -0.952665 -1.88322e-05
0 -0.799469 -0.952665 -1.88347e-05
0 -0.813378 -0.952665 -1.88372e-05
0 -0.826521 -0.952665 -1.88394e-05