# nonlinearR  FACE_DATA 3600
# x y z  nonlinearR_xx nonlinearR_xy nonlinearR_xz nonlinearR_yy nonlinearR_yz nonlinearR_zz
0 -0.02 -0.999 2.02663e-08 5.21635e-11 -1.89856e-11 2.3671e-13 2.00268e-12 -2.02665e-08
0 -0.0597753 -0.999 2.09249e-08 1.51213e-10 -2.03767e-11 1.17217e-12 5.38268e-12 -2.09261e-08
0 -0.0990586 -0.999 2.20221e-08 2.37542e-10 -2.26159e-11 2.60687e-12 7.33531e-12 -2.20247e-08
0 -0.137767 -0.999 2.32942e-08 3.09066e-10 -2.51543e-11 4.10959e-12 7.86931e-12 -2.32983e-08
0 -0.175822 -0.999 2.45453e-08 3.67685e-10 -2.75743e-11 5.48671e-12 7.46039e-12 -2.45508e-08
0 -0.213152 -0.999 2.56759e-08 4.17074e-10 -2.96966e-11 6.73051e-12 6.61945e-12 -2.56827e-08
0 -0.24969 -0.999 2.66547e-08 4.60382e-10 -3.14902e-11 7.88986e-12 5.67159e-12 -2.66626e-08
0 -0.285377 -0.999 2.74844e-08 4.99779e-10 -3.29866e-11 9.01269e-12 4.7662e-12 -2.74934e-08
0 -0.32016 -0.999 2.81802e-08 5.36473e-10 -3.42272e-11 1.01271e-11 3.94683e-12 -2.81903e-08
0 -0.353993 -0.999 2.87585e-08 5.71153e-10 -3.52505e-11 1.12491e-11 3.21357e-12 -2.87698e-08
0 -0.386836 -0.999 2.92346e-08 6.04046e-10 -3.60876e-11 1.238e-11 2.54951e-12 -2.9247e-08
0 -0.418658 -0.999 2.96197e-08 6.3521e-10 -3.67628e-11 1.35162e-11 1.929e-12 -2.96332e-08
0 -0.449432 -0.999 2.9922e-08 6.64385e-10 -3.72918e-11 1.46415e-11 1.33139e-12 -2.99366e-08
0 -0.47914 -0.999 3.01474e-08 6.91412e-10 -3.76832e-11 1.57435e-11 7.39031e-13 -3.01632e-08
0 -0.507768 -0.999 3.02998e-08 7.16084e-10 -3.79461e-11 1.68076e-11 1.34882e-13 -3.03166e-08
0 -0.53531 -0.999 3.03811e-08 7.38064e-10 -3.80856e-11 1.78129e-11 -4.67098e-13 -3.03989e-08
0 -0.561764 -0.999 3.0399e-08 7.57173e-10 -3.81158e-11 1.87416e-11 -1.09309e-12 -3.04177e-08
0 -0.587133 -0.999 3.03504e-08 7.73122e-10 -3.80325e-11 1.95759e-11 -1.77639e-12 -3.03699e-08
0 -0.611426 -0.999 3.02362e-08 7.85607e-10 -3.78445e-11 2.02944e-11 -2.51468e-12 -3.02565e-08
0 -0.634656 -0.999 3.00557e-08 7.94245e-10 -3.75526e-11 2.08718e-11 -3.3384e-12 -3.00765e-08
0 -0.656838 -0.999 2.98055e-08 7.98699e-10 -3.71499e-11 2.12872e-11 -4.2727e-12 -2.98268e-08
0 -0.677993 -0.999 2.94822e-08 7.98778e-10 -3.66284e-11 2.15281e-11 -5.33271e-12 -2.95037e-08
0 -0.698143 -0.999 2.90825e-08 7.94389e-10 -3.59803e-11 2.15879e-11 -6.53085e-12 -2.91041e-08
0 -0.717314 -0.999 2.86033e-08 7.85611e-10 -3.51965e-11 2.14703e-11 -7.8664e-12 -2.86248e-08
0 -0.735531 -0.999 2.8044e-08 7.72605e-10 -3.42749e-11 2.11828e-11 -9.33029e-12 -2.80651e-08
0 -0.752825 -0.999 2.74052e-08 7.55637e-10 -3.32155e-11 2.07386e-11 -1.09068e-11 -2.74259e-08
0 -0.769225 -0.999 2.66901e-08 7.35175e-10 -3.20225e-11 2.01609e-11 -1.25649e-11 -2.67103e-08
0 -0.784762 -0.999 2.59051e-08 7.11748e-10 -3.07068e-11 1.94741e-11 -1.4268e-11 -2.59245e-08
0 -0.799469 -0.999 2.50581e-08 6.85936e-10 -2.92895e-11 1.87038e-11 -1.59877e-11 -2.50768e-08
0 -0.813378 -0.999 2.41583e-08 6.58202e-10 -2.77954e-11 1.78686e-11 -1.77113e-11 -2.41762e-08
0 -0.826521 -0.999 2.32147e-08 6.28959e-10 -2.62444e-11 1.69844e-11 -1.94367e-11 -2.32317e-08
0 -0.838932 -0.999 2.22353e-08 5.98579e-10 -2.46561e-11 1.60653e-11 -2.1163e-11 -2.22514e-08
0 -0.850642 -0.999 2.12279e-08 5.67374e-10 -2.30488e-11 1.51227e-11 -2.28878e-11 -2.1243e-08
0 -0.861683 -0.999 2.01996e-08 5.35625e-10 -2.14388e-11 1.41662e-11 -2.46071e-11 -2.02138e-08
0 -0.872087 -0.999 1.91572e-08 5.03583e-10 -1.98423e-11 1.32045e-11 -2.63144e-11 -1.91704e-08
0 -0.881884 -0.999 1.8107e-08 4.71449e-10 -1.82781e-11 1.22433e-11 -2.80069e-11 -1.81193e-08
0 -0.891106 -0.999 1.70549e-08 4.39362e-10 -1.67629e-11 1.12859e-11 -2.96923e-11 -1.70662e-08
0 -0.89978 -0.999 1.60054e-08 4.07415e-10 -1.53116e-11 1.03337e-11 -3.13928e-11 -1.60157e-08
0 -0.907935 -0.999 1.49617e-08 3.75646e-10 -1.39298e-11 9.38676e-12 -3.31406e-11 -1.49711e-08
0 -0.915599 -0.999 1.39256e-08 3.4414e-10 -1.25917e-11 8.4497e-12 -3.48995e-11 -1.39341e-08
0 -0.922797 -0.999 1.29016e-08 3.13288e-10 -1.13385e-11 7.53813e-12 -3.65947e-11 -1.29092e-08
0 -0.929556 -0.999 1.18949e-08 2.82806e-10 -1.03684e-11 6.62949e-12 -3.83393e-11 -1.19015e-08
0 -0.935899 -0.999 1.09037e-08 2.51901e-10 -9.6526e-12 5.68789e-12 -4.03585e-11 -1.09094e-08
0 -0.941851 -0.999 9.92245e-09 2.2036e-10 -9.10052e-12 4.71195e-12 -4.28004e-11 -9.92716e-09
0 -0.947432 -0.999 8.94416e-09 1.88108e-10 -8.72755e-12 3.7053e-12 -4.58412e-11 -8.94786e-09
0 -0.952665 -0.999 7.95861e-09 1.55035e-10 -8.51683e-12 2.67198e-12 -4.97005e-11 -7.96128e-09
0 -0.95757 -0.999 6.95405e-09 1.21399e-10 -8.37312e-12 1.63319e-12 -5.44436e-11 -6.95568e-09
0 -0.962166 -0.999 5.9225e-09 8.80716e-11 -8.12829e-12 6.29098e-13 -5.9755e-11 -5.92313e-09
0 -0.966471 -0.999 4.86725e-09 5.68026e-11 -7.55236e-12 -2.83116e-13 -6.47108e-11 -4.86696e-09
0 -0.970503 -0.999 3.81103e-09 2.99888e-11 -6.45294e-12 -1.04668e-12 -6.77086e-11 -3.80998e-09
0 -0.974278 -0.999 2.79985e-09 1.01362e-11 -4.78059e-12 -1.61628e-12 -6.67812e-11 -2.79824e-09
0 -0.977811 -0.999 1.89733e-09 -1.44294e-12 -2.80154e-12 -1.96222e-12 -6.05097e-11 -1.89537e-09
0 -0.981118 -0.999 1.16504e-09 -5.43933e-12 -9.96485e-13 -2.05809e-12 -4.91459e-11 -1.16298e-09
0 -0.984213 -0.999 6.374e-10 -4.65357e-12 1.24236e-13 -1.89533e-12 -3.5079e-11 -6.35505e-10
0 -0.987108 -0.999 3.05561e-10 -2.36109e-12 4.62467e-13 -1.52472e-12 -2.17207e-11 -3.04036e-10
0 -0.989816 -0.999 1.25476e-10 -7.22748e-13 3.00738e-13 -1.06741e-12 -1.15712e-11 -1.24408e-10
0 -0.992348 -0.999 4.2059e-11 -1.18112e-13 9.5671e-14 -6.48954e-13 -5.19069e-12 -4.141e-11
0 -0.994716 -0.999 1.02843e-11 -6.01465e-15 1.44568e-14 -3.32916e-13 -1.82081e-12 -9.95134e-12
0 -0.99693 -0.999 1.39033e-12 3.42285e-16 6.82358e-16 -1.28029e-13 -4.02048e-13 -1.2623e-12
0 -0.999 -0.999 5.89392e-14 3.66569e-18 3.66103e-18 -2.94696e-14 -2.94704e-14 -2.94696e-14
0 -0.02 -0.99693 1.06678e-06 2.23027e-09 2.02682e-10 1.00921e-10 3.36204e-10 -1.06688e-06
0 -0.0597753 -0.99693 1.10153e-06 6.53828e-09 1.87173e-10 1.25838e-10 9.06867e-10 -1.10165e-06
0 -0.0990586 -0.99693 1.16038e-06 1.04745e-08 1.71686e-10 1.68973e-10 1.24547e-09 -1.16055e-06
0 -0.137767 -0.99693 1.23015e-06 1.3958e-08 1.72275e-10 2.22902e-10 1.35286e-09 -1.23038e-06
0 -0.175822 -0.99693 1.30043e-06 1.70115e-08 1.93791e-10 2.82502e-10 1.30481e-09 -1.30071e-06
0 -0.213152 -0.99693 1.36535e-06 1.97191e-08 2.31061e-10 3.4497e-10 1.18336e-09 -1.36569e-06
0 -0.24969 -0.99693 1.42257e-06 2.21632e-08 2.76004e-10 4.08659e-10 1.04149e-09 -1.42298e-06
0 -0.285377 -0.99693 1.47174e-06 2.44092e-08 3.22131e-10 4.72771e-10 9.04174e-10 -1.47221e-06
0 -0.32016 -0.99693 1.51342e-06 2.64977e-08 3.65766e-10 5.36847e-10 7.79139e-10 -1.51396e-06
0 -0.353993 -0.99693 1.54832e-06 2.84541e-08 4.04784e-10 6.00598e-10 6.66853e-10 -1.54892e-06
0 -0.386836 -0.99693 1.57721e-06 3.02878e-08 4.38267e-10 6.6357e-10 5.64804e-10 -1.57788e-06
0 -0.418658 -0.99693 1.60067e-06 3.20008e-08 4.65408e-10 7.25192e-10 4.68881e-10 -1.6014e-06
0 -0.449432 -0.99693 1.61912e-06 3.35826e-08 4.8591e-10 7.84587e-10 3.75704e-10 -1.6199e-06
0 -0.47914 -0.99693 1.63292e-06 3.50262e-08 5.00153e-10 8.41149e-10 2.8235e-10 -1.63376e-06
0 -0.507768 -0.99693 1.64228e-06 3.63204e-08 5.07682e-10 8.93955e-10 1.85935e-10 -1.64317e-06
0 -0.53531 -0.99693 1.64715e-06 3.74486e-08 5.08123e-10 9.41911e-10 8.88514e-11 -1.6481e-06
0 -0.561764 -0.99693 1.64825e-06 3.84104e-08 5.02175e-10 9.84481e-10 -1.32771e-11 -1.64924e-06
0 -0.587133 -0.99693 1.64526e-06 3.91876e-08 4.89334e-10 1.02062e-09 -1.2616e-10 -1.64628e-06
0 -0.611426 -0.99693 1.63823e-06 3.97691e-08 4.68853e-10 1.04929e-09 -2.49343e-10 -1.63928e-06
0 -0.634656 -0.99693 1.62717e-06 4.01417e-08 4.40609e-10 1.06955e-09 -3.87912e-10 -1.62824e-06
0 -0.656838 -0.99693 1.61192e-06 4.02937e-08 4.04822e-10 1.08077e-09 -5.46033e-10 -1.613e-06
0 -0.677993 -0.99693 1.59236e-06 4.02199e-08 3.62113e-10 1.08271e-09 -7.26106e-10 -1.59344e-06
0 -0.698143 -0.99693 1.56833e-06 3.99185e-08 3.13117e-10 1.07541e-09 -9.30015e-10 -1.5694e-06
0 -0.717314 -0.99693 1.53971e-06 3.93948e-08 2.58656e-10 1.05925e-09 -1.15737e-09 -1.54077e-06
0 -0.735531 -0.99693 1.50644e-06 3.86576e-08 1.99294e-10 1.03474e-09 -1.40617e-09 -1.50748e-06
0 -0.752825 -0.99693 1.46867e-06 3.77234e-08 1.36761e-10 1.0029e-09 -1.67332e-09 -1.46967e-06
0 -0.769225 -0.99693 1.42662e-06 3.66144e-08 7.25399e-11 9.64958e-10 -1.95312e-09 -1.42758e-06
0 -0.784762 -0.99693 1.38068e-06 3.53571e-08 8.02093e-12 9.22158e-10 -2.23903e-09 -1.3816e-06
0 -0.799469 -0.99693 1.33135e-06 3.39794e-08 -5.60462e-11 8.75614e-10 -2.52583e-09 -1.33222e-06
0 -0.813378 -0.99693 1.27917e-06 3.25064e-08 -1.19216e-10 8.26175e-10 -2.81096e-09 -1.27999e-06
0 -0.826521 -0.99693 1.2247e-06 3.09613e-08 -1.80611e-10 7.74706e-10 -3.09369e-09 -1.22548e-06
0 -0.838932 -0.99693 1.16847e-06 2.93645e-08 -2.39539e-10 7.21917e-10 -3.37362e-09 -1.1692e-06
0 -0.850642 -0.99693 1.11094e-06 2.77333e-08 -2.95448e-10 6.68368e-10 -3.65006e-09 -1.11161e-06
0 -0.861683 -0.99693 1.05257e-06 2.60834e-08 -3.47749e-10 6.14555e-10 -3.92218e-09 -1.05318e-06
0 -0.872087 -0.99693 9.93753e-07 2.44282e-08 -3.96126e-10 5.6083e-10 -4.18881e-09 -9.94314e-07
0 -0.881884 -0.99693 9.34892e-07 2.27793e-08 -4.4071e-10 5.07358e-10 -4.4494e-09 -9.35399e-07
0 -0.891106 -0.99693 8.7633e-07 2.11456e-08 -4.81706e-10 4.54186e-10 -4.70518e-09 -8.76784e-07
0 -0.89978 -0.99693 8.18357e-07 1.95338e-08 -5.19487e-10 4.01242e-10 -4.9596e-09 -8.18759e-07
0 -0.907935 -0.99693 7.612e-07 1.7948e-08 -5.5375e-10 3.48461e-10 -5.21778e-09 -7.61549e-07
0 -0.915599 -0.99693 7.04987e-07 1.63904e-08 -5.81608e-10 2.9638e-10 -5.47483e-09 -7.05283e-07
0 -0.922797 -0.99693 6.49923e-07 1.48669e-08 -6.05685e-10 2.44242e-10 -5.72077e-09 -6.50168e-07
0 -0.929556 -0.99693 5.96207e-07 1.3378e-08 -6.29659e-10 1.8963e-10 -5.97166e-09 -5.96396e-07
0 -0.935899 -0.99693 5.43904e-07 1.19196e-08 -6.58503e-10 1.31086e-10 -6.2619e-09 -5.44035e-07
0 -0.941851 -0.99693 4.92893e-07 1.04882e-08 -6.93145e-10 6.78483e-11 -6.61706e-09 -4.92961e-07
0 -0.947432 -0.99693 4.42926e-07 9.08024e-09 -7.35597e-10 -2.7644e-12 -7.06729e-09 -4.42923e-07
0 -0.952665 -0.99693 3.93542e-07 7.69085e-09 -7.84697e-10 -8.48197e-11 -7.64947e-09 -3.93457e-07
0 -0.95757 -0.99693 3.44122e-07 6.32048e-09 -8.31859e-10 -1.83424e-10 -8.37857e-09 -3.43939e-07
0 -0.962166 -0.99693 2.9409e-07 4.98082e-09 -8.60623e-10 -3.0478e-10 -9.21335e-09 -2.93786e-07
0 -0.966471 -0.99693 2.43231e-07 3.70293e-09 -8.4735e-10 -4.54467e-10 -1.00183e-08 -2.42777e-07
0 -0.970503 -0.99693 1.92118e-07 2.53799e-09 -7.68933e-10 -6.31653e-10 -1.05427e-08 -1.91487e-07
0 -0.974278 -0.99693 1.42462e-07 1.55355e-09 -6.15007e-10 -8.17691e-10 -1.04555e-08 -1.41645e-07
0 -0.977811 -0.99693 9.71194e-08 8.09471e-10 -4.06804e-10 -9.65455e-10 -9.48315e-09 -9.6154e-08
0 -0.981118 -0.99693 5.93708e-08 3.33361e-10 -1.96308e-10 -1.0067e-09 -7.61639e-09 -5.83641e-08
0 -0.984213 -0.99693 3.16295e-08 9.3697e-11 -4.70637e-11 -8.959e-10 -5.24299e-09 -3.07336e-08
0 -0.987108 -0.99693 1.42223e-08 1.29737e-11 1.54469e-11 -6.61899e-10 -3.00054e-09 -1.35604e-08
0 -0.989816 -0.99693 5.19558e-09 2.50368e-13 1.66588e-11 -3.99301e-10 -1.38618e-09 -4.79628e-09
0 -0.992348 -0.99693 1.44832e-09 4.19617e-13 5.23616e-12 -1.91678e-10 -4.91227e-10 -1.25664e-09
0 -0.994716 -0.99693 2.66344e-10 2.3032e-13 6.62456e-13 -6.57467e-11 -1.14878e-10 -2.00598e-10
0 -0.99693 -0.99693 2.03975e-11 2.04008e-14 2.03925e-14 -1.01987e-11 -1.01997e-11 -1.01987e-11
0 -0.999 -0.99693 1.39033e-12 6.82639e-16 3.41877e-16 -1.2623e-12 -4.02048e-13 -1.28029e-13
0 -0.02 -0.994716 5.94561e-05 9.51426e-08 2.07056e-07 7.18313e-08 3.40203e-08 -5.95279e-05
0 -0.0597753 -0.994716 6.11253e-05 2.82726e-07 2.08972e-07 7.17189e-08 9.15555e-08 -6.1197e-05
0 -0.0990586 -0.994716 6.39383e-05 4.62801e-07 2.12751e-07 7.22251e-08 1.2532e-07 -6.40105e-05
0 -0.137767 -0.994716 6.72509e-05 6.31424e-07 2.18605e-07 7.41269e-08 1.35715e-07 -6.7325e-05
0 -0.175822 -0.994716 7.05635e-05 7.86109e-07 2.25993e-07 7.75136e-08 1.30658e-07 -7.06411e-05
0 -0.213152 -0.994716 7.36023e-05 9.26869e-07 2.34037e-07 8.19643e-08 1.18474e-07 -7.36843e-05
0 -0.24969 -0.994716 7.62632e-05 1.055e-06 2.41943e-07 8.69358e-08 1.04435e-07 -7.63501e-05
0 -0.285377 -0.994716 7.85364e-05 1.17237e-06 2.4921e-07 9.20243e-08 9.0979e-08 -7.86284e-05
0 -0.32016 -0.994716 8.04531e-05 1.28049e-06 2.55622e-07 9.69969e-08 7.88331e-08 -8.05501e-05
0 -0.353993 -0.994716 8.20509e-05 1.38055e-06 2.61088e-07 1.01721e-07 6.80104e-08 -8.21526e-05
0 -0.386836 -0.994716 8.33687e-05 1.47315e-06 2.65612e-07 1.0612e-07 5.82397e-08 -8.34748e-05
0 -0.418658 -0.994716 8.4435e-05 1.55856e-06 2.69182e-07 1.10126e-07 4.91038e-08 -8.45451e-05
0 -0.449432 -0.994716 8.52713e-05 1.63659e-06 2.7182e-07 1.1369e-07 4.02646e-08 -8.5385e-05
0 -0.47914 -0.994716 8.58958e-05 1.70704e-06 2.73591e-07 1.16803e-07 3.14255e-08 -8.60126e-05
0 -0.507768 -0.994716 8.63188e-05 1.76949e-06 2.74486e-07 1.19407e-07 2.23045e-08 -8.64382e-05
0 -0.53531 -0.994716 8.65387e-05 1.82348e-06 2.74463e-07 1.21436e-07 1.31098e-08 -8.66602e-05
0 -0.561764 -0.994716 8.65883e-05 1.86915e-06 2.73647e-07 1.2291e-07 3.41054e-09 -8.67112e-05
0 -0.587133 -0.994716 8.64533e-05 1.90571e-06 2.71963e-07 1.2376e-07 -7.34419e-09 -8.6577e-05
0 -0.611426 -0.994716 8.61356e-05 1.93294e-06 2.69359e-07 1.23917e-07 -1.91321e-08 -8.62595e-05
0 -0.634656 -0.994716 8.56347e-05 1.95053e-06 2.65819e-07 1.23347e-07 -3.24479e-08 -8.57581e-05
0 -0.656838 -0.994716 8.49437e-05 1.9582e-06 2.61351e-07 1.22058e-07 -4.77022e-08 -8.50658e-05
0 -0.677993 -0.994716 8.40558e-05 1.95587e-06 2.5599e-07 1.20076e-07 -6.51467e-08 -8.41758e-05
0 -0.698143 -0.994716 8.29632e-05 1.94356e-06 2.49765e-07 1.17441e-07 -8.49923e-08 -8.30807e-05
0 -0.717314 -0.994716 8.1658e-05 1.92149e-06 2.42712e-07 1.14202e-07 -1.07249e-07 -8.17722e-05
0 -0.735531 -0.994716 8.01326e-05 1.89e-06 2.34818e-07 1.10388e-07 -1.3175e-07 -8.0243e-05
0 -0.752825 -0.994716 7.8394e-05 1.84986e-06 2.2623e-07 1.06108e-07 -1.58233e-07 -7.85001e-05
0 -0.769225 -0.994716 7.6449e-05 1.80187e-06 2.17047e-07 1.01454e-07 -1.86207e-07 -7.65504e-05
0 -0.784762 -0.994716 7.43122e-05 1.74703e-06 2.07368e-07 9.65016e-08 -2.15088e-07 -7.44087e-05
0 -0.799469 -0.994716 7.20023e-05 1.6864e-06 1.97246e-07 9.12943e-08 -2.4442e-07 -7.20936e-05
0 -0.813378 -0.994716 6.95409e-05 1.62102e-06 1.8672e-07 8.58555e-08 -2.73971e-07 -6.96268e-05
0 -0.826521 -0.994716 6.69512e-05 1.55189e-06 1.75866e-07 8.02327e-08 -3.03686e-07 -6.70314e-05
0 -0.838932 -0.994716 6.42542e-05 1.47983e-06 1.64748e-07 7.44617e-08 -3.33544e-07 -6.43287e-05
0 -0.850642 -0.994716 6.14695e-05 1.40558e-06 1.53428e-07 6.85694e-08 -3.63489e-07 -6.1538e-05
0 -0.861683 -0.994716 5.86165e-05 1.32981e-06 1.41971e-07 6.25835e-08 -3.93451e-07 -5.86791e-05
0 -0.872087 -0.994716 5.57129e-05 1.25307e-06 1.3043e-07 5.65157e-08 -4.23331e-07 -5.57694e-05
0 -0.881884 -0.994716 5.27759e-05 1.1759e-06 1.18828e-07 5.03563e-08 -4.53084e-07 -5.28263e-05
0 -0.891106 -0.994716 4.98215e-05 1.09873e-06 1.07188e-07 4.40888e-08 -4.82826e-07 -4.98656e-05
0 -0.89978 -0.994716 4.68633e-05 1.02195e-06 9.55083e-08 3.76774e-08 -5.12883e-07 -4.6901e-05
0 -0.907935 -0.994716 4.39131e-05 9.45761e-07 8.38138e-08 3.10915e-08 -5.43715e-07 -4.39442e-05
0 -0.915599 -0.994716 4.09781e-05 8.70082e-07 7.22523e-08 2.43909e-08 -5.75015e-07 -4.10025e-05
0 -0.922797 -0.994716 3.8067e-05 7.94109e-07 6.0712e-08 1.73642e-08 -6.06189e-07 -3.80844e-05
0 -0.929556 -0.994716 3.51844e-05 7.18886e-07 4.77533e-08 9.38611e-09 -6.38768e-07 -3.51938e-05
0 -0.935899 -0.994716 3.2337e-05 6.46652e-07 3.38634e-08 5.08127e-10 -6.75927e-07 -3.23375e-05
0 -0.941851 -0.994716 2.95234e-05 5.77381e-07 1.97459e-08 -9.28727e-09 -7.20511e-07 -2.95141e-05
0 -0.947432 -0.994716 2.67325e-05 5.10633e-07 5.31116e-09 -2.0552e-08 -7.75966e-07 -2.67119e-05
0 -0.952665 -0.994716 2.39419e-05 4.46274e-07 -9.2717e-09 -3.40565e-08 -8.46192e-07 -2.39078e-05
0 -0.95757 -0.994716 2.11205e-05 3.84e-07 -2.3344e-08 -5.08248e-08 -9.32773e-07 -2.10697e-05
0 -0.962166 -0.994716 1.82379e-05 3.23328e-07 -3.56872e-08 -7.21615e-08 -1.0314e-06 -1.81657e-05
0 -0.966471 -0.994716 1.52797e-05 2.63773e-07 -4.45138e-08 -9.93599e-08 -1.12777e-06 -1.51803e-05
0 -0.970503 -0.994716 1.22704e-05 2.05166e-07 -4.79169e-08 -1.32558e-07 -1.1948e-06 -1.21378e-05
0 -0.974278 -0.994716 9.2949e-06 1.48446e-07 -4.45763e-08 -1.68468e-07 -1.19538e-06 -9.12643e-06
0 -0.977811 -0.994716 6.50676e-06 9.61576e-08 -3.50426e-08 -1.97908e-07 -1.09598e-06 -6.30885e-06
0 -0.981118 -0.994716 4.10175e-06 5.2766e-08 -2.19488e-08 -2.06651e-07 -8.89805e-07 -3.8951e-06
0 -0.984213 -0.994716 2.25445e-06 2.25332e-08 -9.73003e-09 -1.83865e-07 -6.15812e-07 -2.07059e-06
0 -0.987108 -0.994716 1.03582e-06 6.76524e-09 -1.9255e-09 -1.33564e-07 -3.47564e-07 -9.02252e-07
0 -0.989816 -0.994716 3.76938e-07 1.37639e-09 4.29239e-10 -7.60128e-08 -1.51559e-07 -3.00925e-07
0 -0.992348 -0.994716 9.56037e-08 2.3554e-10 2.78557e-10 -3.03087e-08 -4.45594e-08 -6.5295e-08
0 -0.994716 -0.994716 1.12194e-08 2.85184e-11 2.85136e-11 -5.60972e-09 -5.61447e-09 -5.60972e-09
0 -0.99693 -0.994716 2.66344e-10 6.6256e-13 2.30192e-13 -2.00598e-10 -1.14878e-10 -6.57468e-11
0 -0.999 -0.994716 1.02843e-11 1.44588e-14 -6.01969e-15 -9.95134e-12 -1.82081e-12 -3.32917e-13
0 -0.02 -0.992348 0.000441629 5.03493e-07 6.17395e-07 6.73059e-07 3.94385e-07 -0.000442302
0 -0.0597753 -0.992348 0.00044971 1.52468e-06 5.55015e-07 6.10334e-07 1.05159e-06 -0.00045032
0 -0.0990586 -0.992348 0.000463223 2.56527e-06 4.56313e-07 5.16675e-07 1.41753e-06 -0.00046374
0 -0.137767 -0.992348 0.000478969 3.59583e-06 3.51917e-07 4.26788e-07 1.50765e-06 -0.000479396
0 -0.175822 -0.992348 0.000494541 4.57564e-06 2.60452e-07 3.59101e-07 1.42442e-06 -0.0004949
0 -0.213152 -0.992348 0.000508672 5.47968e-06 1.87301e-07 3.15881e-07 1.26752e-06 -0.000508987
0 -0.24969 -0.992348 0.000520917 6.30122e-06 1.30648e-07 2.91767e-07 1.09659e-06 -0.000521209
0 -0.285377 -0.992348 0.000531279 7.04568e-06 8.67236e-08 2.8057e-07 9.3747e-07 -0.000531559
0 -0.32016 -0.992348 0.000539943 7.72152e-06 5.22203e-08 2.77591e-07 7.96695e-07 -0.000540221
0 -0.353993 -0.992348 0.000547114 8.33687e-06 2.45638e-08 2.79545e-07 6.73223e-07 -0.000547394
0 -0.386836 -0.992348 0.000552994 8.89742e-06 1.85874e-09 2.84143e-07 5.63254e-07 -0.000553278
0 -0.418658 -0.992348 0.000557726 9.40645e-06 -1.73335e-08 2.89651e-07 4.61785e-07 -0.000558016
0 -0.449432 -0.992348 0.00056142 9.86553e-06 -3.38917e-08 2.94992e-07 3.64808e-07 -0.000561715
0 -0.47914 -0.992348 0.000564175 1.0275e-05 -4.82555e-08 2.99691e-07 2.68872e-07 -0.000564475
0 -0.507768 -0.992348 0.000566036 1.06332e-05 -6.08101e-08 3.03116e-07 1.71141e-07 -0.000566339
0 -0.53531 -0.992348 0.000567004 1.09408e-05 -7.19227e-08 3.04676e-07 7.30007e-08 -0.000567309
0 -0.561764 -0.992348 0.000567219 1.11988e-05 -8.21102e-08 3.0391e-07 -3.03168e-08 -0.000567523
0 -0.587133 -0.992348 0.000566627 1.14037e-05 -9.14206e-08 3.00577e-07 -1.44261e-07 -0.000566928
0 -0.611426 -0.992348 0.000565229 1.15566e-05 -1.00331e-07 2.94002e-07 -2.69286e-07 -0.000565523
0 -0.634656 -0.992348 0.000563019 1.16577e-05 -1.09062e-07 2.83918e-07 -4.10763e-07 -0.000563303
0 -0.656838 -0.992348 0.00055996 1.17072e-05 -1.17199e-07 2.70888e-07 -5.73296e-07 -0.000560231
0 -0.677993 -0.992348 0.000556022 1.1706e-05 -1.24317e-07 2.55497e-07 -7.60046e-07 -0.000556278
0 -0.698143 -0.992348 0.000551163 1.16549e-05 -1.29866e-07 2.38528e-07 -9.73801e-07 -0.000551402
0 -0.717314 -0.992348 0.00054533 1.15552e-05 -1.3317e-07 2.20812e-07 -1.21559e-06 -0.000545551
0 -0.735531 -0.992348 0.000538482 1.1409e-05 -1.33965e-07 2.02784e-07 -1.48472e-06 -0.000538685
0 -0.752825 -0.992348 0.000530624 1.12198e-05 -1.31705e-07 1.8532e-07 -1.77947e-06 -0.000530809
0 -0.769225 -0.992348 0.000521762 1.09906e-05 -1.26063e-07 1.6904e-07 -2.09604e-06 -0.000521931
0 -0.784762 -0.992348 0.000511932 1.07252e-05 -1.17042e-07 1.54127e-07 -2.42973e-06 -0.000512086
0 -0.799469 -0.992348 0.000501187 1.04277e-05 -1.05236e-07 1.40111e-07 -2.77713e-06 -0.000501327
0 -0.813378 -0.992348 0.000489593 1.01027e-05 -9.15648e-08 1.26156e-07 -3.13707e-06 -0.000489719
0 -0.826521 -0.992348 0.000477224 9.75408e-06 -7.67681e-08 1.11666e-07 -3.51013e-06 -0.000477336
0 -0.838932 -0.992348 0.000464148 9.38522e-06 -6.15969e-08 9.59664e-08 -3.89738e-06 -0.000464244
0 -0.850642 -0.992348 0.000450424 8.99903e-06 -4.67802e-08 7.83469e-08 -4.29964e-06 -0.000450502
0 -0.861683 -0.992348 0.000436116 8.59803e-06 -3.29952e-08 5.80873e-08 -4.71763e-06 -0.000436174
0 -0.872087 -0.992348 0.000421279 8.18415e-06 -2.09547e-08 3.43099e-08 -5.15204e-06 -0.000421313
0 -0.881884 -0.992348 0.000405965 7.75941e-06 -1.16099e-08 5.79509e-09 -5.60426e-06 -0.000405971
0 -0.891106 -0.992348 0.000390227 7.32569e-06 -5.92134e-09 -2.88263e-08 -6.07759e-06 -0.000390198
0 -0.89978 -0.992348 0.000374104 6.88454e-06 -5.13488e-09 -7.14964e-08 -6.57771e-06 -0.000374032
0 -0.907935 -0.992348 0.000357637 6.43655e-06 -1.08331e-08 -1.24819e-07 -7.11175e-06 -0.000357512
0 -0.915599 -0.992348 0.000340845 5.98001e-06 -2.53334e-08 -1.92891e-07 -7.68271e-06 -0.000340652
0 -0.922797 -0.992348 0.000323735 5.50165e-06 -4.91308e-08 -2.78607e-07 -8.3033e-06 -0.000323456
0 -0.929556 -0.992348 0.000306275 5.01544e-06 -8.41438e-08 -3.81902e-07 -8.99401e-06 -0.000305893
0 -0.935899 -0.992348 0.000288468 4.55056e-06 -1.31808e-07 -5.08194e-07 -9.78538e-06 -0.00028796
0 -0.941851 -0.992348 0.000270285 4.10716e-06 -1.94595e-07 -6.71574e-07 -1.07316e-05 -0.000269613
0 -0.947432 -0.992348 0.000251625 3.68166e-06 -2.72966e-07 -8.87874e-07 -1.19022e-05 -0.000250737
0 -0.952665 -0.992348 0.000232305 3.27639e-06 -3.65121e-07 -1.17948e-06 -1.33695e-05 -0.000231125
0 -0.95757 -0.992348 0.000212078 2.89242e-06 -4.66681e-07 -1.58133e-06 -1.51808e-05 -0.000210496
0 -0.962166 -0.992348 0.000190649 2.52762e-06 -5.68625e-07 -2.1412e-06 -1.73083e-05 -0.000188508
0 -0.966471 -0.992348 0.000167749 2.17524e-06 -6.56173e-07 -2.91402e-06 -1.9581e-05 -0.000164835
0 -0.970503 -0.992348 0.000143234 1.82307e-06 -7.09864e-07 -3.93268e-06 -2.16125e-05 -0.000139301
0 -0.974278 -0.992348 0.000117253 1.4585e-06 -7.07831e-07 -5.14513e-06 -2.27725e-05 -0.000112108
0 -0.977811 -0.992348 9.0421e-05 1.07326e-06 -6.3525e-07 -6.31925e-06 -2.2288e-05 -8.41017e-05
0 -0.981118 -0.992348 6.39931e-05 6.84819e-07 -4.88553e-07 -6.99431e-06 -1.95647e-05 -5.69988e-05
0 -0.984213 -0.992348 3.98819e-05 3.38789e-07 -2.95648e-07 -6.62668e-06 -1.46802e-05 -3.32552e-05
0 -0.987108 -0.992348 2.03568e-05 1.11014e-07 -1.08354e-07 -4.98863e-06 -8.71912e-06 -1.53682e-05
0 -0.989816 -0.992348 7.42196e-06 2.07303e-08 -1.02558e-08 -2.62231e-06 -3.54938e-06 -4.79966e-06
0 -0.992348 -0.992348 1.44911e-06 2.83679e-09 2.83641e-09 -7.24557e-07 -7.26101e-07 -7.24558e-07
0 -0.994716 -0.992348 9.56037e-08 2.78589e-10 2.35504e-10 -6.52949e-08 -4.45595e-08 -3.03087e-08
0 -0.99693 -0.992348 1.44832e-09 5.23663e-12 4.18888e-13 -1.25664e-09 -4.91228e-10 -1.91678e-10
0 -0.999 -0.992348 4.2059e-11 9.5678e-14 -1.18139e-13 -4.14101e-11 -5.1907e-12 -6.48956e-13
0 -0.02 -0.989816 0.000958566 7.1513e-07 -1.91057e-06 4.63289e-07 1.28789e-06 -0.000959029
0 -0.0597753 -0.989816 0.000967712 2.24315e-06 -2.05587e-06 2.35389e-07 3.4074e-06 -0.000967947
0 -0.0990586 -0.989816 0.000983262 3.95899e-06 -2.27675e-06 -1.00711e-07 4.5355e-06 -0.000983162
0 -0.137767 -0.989816 0.00100176 5.79787e-06 -2.50733e-06 -4.26061e-07 4.75576e-06 -0.00100133
0 -0.175822 -0.989816 0.00102043 7.62974e-06 -2.7051e-06 -6.77452e-07 4.43128e-06 -0.00101975
0 -0.213152 -0.989816 0.00103765 9.35477e-06 -2.85847e-06 -8.46733e-07 3.89281e-06 -0.0010368
0 -0.24969 -0.989816 0.00105275 1.09275e-05 -2.97239e-06 -9.51124e-07 3.32857e-06 -0.00105179
0 -0.285377 -0.989816 0.00106562 1.23423e-05 -3.05642e-06 -1.01114e-06 2.81499e-06 -0.0010646
0 -0.32016 -0.989816 0.00107643 1.36096e-05 -3.11916e-06 -1.04298e-06 2.36818e-06 -0.00107539
0 -0.353993 -0.989816 0.0010854 1.47438e-05 -3.16731e-06 -1.05817e-06 1.98146e-06 -0.00108434
0 -0.386836 -0.989816 0.00109275 1.57576e-05 -3.20592e-06 -1.06491e-06 1.64076e-06 -0.00109169
0 -0.418658 -0.989816 0.00109867 1.66593e-05 -3.23878e-06 -1.06918e-06 1.32945e-06 -0.0010976
0 -0.449432 -0.989816 0.00110328 1.74557e-05 -3.26842e-06 -1.07479e-06 1.03413e-06 -0.00110221
0 -0.47914 -0.989816 0.00110671 1.81493e-05 -3.29619e-06 -1.08367e-06 7.43605e-07 -0.00110563
0 -0.507768 -0.989816 0.00110903 1.874e-05 -3.32302e-06 -1.09732e-06 4.50344e-07 -0.00110793
0 -0.53531 -0.989816 0.00111019 1.92328e-05 -3.3492e-06 -1.11706e-06 1.55029e-07 -0.00110907
0 -0.561764 -0.989816 0.00111043 1.96309e-05 -3.37741e-06 -1.14551e-06 -1.57054e-07 -0.00110929
0 -0.587133 -0.989816 0.00110965 1.99299e-05 -3.40701e-06 -1.18252e-06 -5.00349e-07 -0.00110847
0 -0.611426 -0.989816 0.00110786 2.01353e-05 -3.43908e-06 -1.22965e-06 -8.78981e-07 -0.00110663
0 -0.634656 -0.989816 0.00110504 2.02508e-05 -3.4744e-06 -1.28792e-06 -1.30936e-06 -0.00110375
0 -0.656838 -0.989816 0.00110116 2.02797e-05 -3.51235e-06 -1.35586e-06 -1.80596e-06 -0.0010998
0 -0.677993 -0.989816 0.0010962 2.02257e-05 -3.55202e-06 -1.43201e-06 -2.3794e-06 -0.00109477
0 -0.698143 -0.989816 0.00109012 2.00913e-05 -3.5922e-06 -1.51433e-06 -3.03914e-06 -0.00108861
0 -0.717314 -0.989816 0.00108286 1.98792e-05 -3.63102e-06 -1.60038e-06 -3.78991e-06 -0.00108126
0 -0.735531 -0.989816 0.00107436 1.95936e-05 -3.66702e-06 -1.68875e-06 -4.63285e-06 -0.00107267
0 -0.752825 -0.989816 0.00106462 1.9239e-05 -3.69878e-06 -1.7773e-06 -5.56597e-06 -0.00106284
0 -0.769225 -0.989816 0.00105363 1.8819e-05 -3.72472e-06 -1.86427e-06 -6.58112e-06 -0.00105176
0 -0.784762 -0.989816 0.00104141 1.83379e-05 -3.74391e-06 -1.94911e-06 -7.66867e-06 -0.00103946
0 -0.799469 -0.989816 0.00102801 1.77995e-05 -3.7565e-06 -2.03302e-06 -8.82321e-06 -0.00102598
0 -0.813378 -0.989816 0.00101347 1.7209e-05 -3.76359e-06 -2.11867e-06 -1.00462e-05 -0.00101135
0 -0.826521 -0.989816 0.000997864 1.65708e-05 -3.76635e-06 -2.2088e-06 -1.13441e-05 -0.000995655
0 -0.838932 -0.989816 0.000981253 1.58873e-05 -3.7659e-06 -2.30646e-06 -1.2726e-05 -0.000978947
0 -0.850642 -0.989816 0.000963685 1.51605e-05 -3.76332e-06 -2.41505e-06 -1.42015e-05 -0.00096127
0 -0.861683 -0.989816 0.000945217 1.43915e-05 -3.76005e-06 -2.53883e-06 -1.57809e-05 -0.000942678
0 -0.872087 -0.989816 0.00092589 1.358e-05 -3.75753e-06 -2.6829e-06 -1.74767e-05 -0.000923207
0 -0.881884 -0.989816 0.000905742 1.27258e-05 -3.75799e-06 -2.85422e-06 -1.93056e-05 -0.000902888
0 -0.891106 -0.989816 0.00088481 1.18283e-05 -3.76416e-06 -3.06178e-06 -2.12925e-05 -0.000881748
0 -0.89978 -0.989816 0.000863115 1.08865e-05 -3.7802e-06 -3.31875e-06 -2.34723e-05 -0.000859797
0 -0.907935 -0.989816 0.000840686 9.89944e-06 -3.81271e-06 -3.64455e-06 -2.58888e-05 -0.000837041
0 -0.915599 -0.989816 0.000817533 8.8667e-06 -3.87579e-06 -4.07771e-06 -2.85866e-05 -0.000813455
0 -0.922797 -0.989816 0.00079361 7.78429e-06 -3.96978e-06 -4.62945e-06 -3.16278e-05 -0.000788981
0 -0.929556 -0.989816 0.000764965 6.62477e-06 -3.98704e-06 -5.20258e-06 -3.49733e-05 -0.000759762
0 -0.935899 -0.989816 0.000732885 5.4178e-06 -3.97795e-06 -5.89105e-06 -3.88322e-05 -0.000726994
0 -0.941851 -0.989816 0.000699475 4.19506e-06 -4.0229e-06 -6.8674e-06 -4.35222e-05 -0.000692608
0 -0.947432 -0.989816 0.000664553 2.97456e-06 -4.1246e-06 -8.25148e-06 -4.93269e-05 -0.000656302
0 -0.952665 -0.989816 0.000627847 1.78857e-06 -4.2767e-06 -1.02177e-05 -5.65558e-05 -0.00061763
0 -0.95757 -0.989816 0.000589071 6.91177e-07 -4.46617e-06 -1.30337e-05 -6.54435e-05 -0.000576037
0 -0.962166 -0.989816 0.000547847 -2.38664e-07 -4.66189e-06 -1.70532e-05 -7.59777e-05 -0.000530794
0 -0.966471 -0.989816 0.00050373 -9.04426e-07 -4.81116e-06 -2.26764e-05 -8.76727e-05 -0.000481054
0 -0.970503 -0.989816 0.000455979 -1.22419e-06 -4.84203e-06 -3.01754e-05 -9.92628e-05 -0.000425803
0 -0.974278 -0.989816 0.000403505 -1.17007e-06 -4.67627e-06 -3.93553e-05 -0.000108469 -0.00036415
0 -0.977811 -0.989816 0.000344479 -8.50774e-07 -4.24401e-06 -4.89369e-05 -0.000111889 -0.000295542
0 -0.981118 -0.989816 0.00027701 -4.5804e-07 -3.47091e-06 -5.60085e-05 -0.000105641 -0.000221002
0 -0.984213 -0.989816 0.000200241 -2.89898e-07 -2.3259e-06 -5.60371e-05 -8.67545e-05 -0.000144204
0 -0.987108 -0.989816 0.000117831 -2.19394e-07 -9.51941e-07 -4.44597e-05 -5.5974e-05 -7.3371e-05
0 -0.989816 -0.989816 4.51789e-05 -1.01851e-07 -1.01852e-07 -2.25894e-05 -2.24326e-05 -2.25895e-05
0 -0.992348 -0.989816 7.42196e-06 -1.02547e-08 2.07293e-08 -4.79965e-06 -3.54938e-06 -2.62232e-06
0 -0.994716 -0.989816 3.76938e-07 4.29327e-10 1.37628e-09 -3.00925e-07 -1.5156e-07 -7.60131e-08
0 -0.99693 -0.989816 5.19558e-09 1.666e-11 2.47752e-13 -4.79628e-09 -1.38618e-09 -3.99303e-10
0 -0.999 -0.989816 1.25476e-10 3.00754e-13 -7.22842e-13 -1.24409e-10 -1.15712e-11 -1.06741e-12
0 -0.02 -0.987108 0.00127164 5.521e-07 2.05436e-06 4.11123e-06 2.47366e-06 -0.00127576
0 -0.0597753 -0.987108 0.00128086 1.85582e-06 1.90933e-06 3.77573e-06 6.54215e-06 -0.00128464
0 -0.0990586 -0.987108 0.00129679 3.56993e-06 1.69261e-06 3.27956e-06 8.70304e-06 -0.00130007
0 -0.137767 -0.987108 0.00131611 5.62351e-06 1.47715e-06 2.79998e-06 9.12119e-06 -0.00131891
0 -0.175822 -0.987108 0.00133595 7.80675e-06 1.30753e-06 2.43052e-06 8.49719e-06 -0.00133838
0 -0.213152 -0.987108 0.00135452 9.93472e-06 1.19293e-06 2.18444e-06 7.4662e-06 -0.0013567
0 -0.24969 -0.987108 0.00137095 1.1904e-05 1.12337e-06 2.03655e-06 6.38903e-06 -0.00137299
0 -0.285377 -0.987108 0.00138505 1.36784e-05 1.08435e-06 1.95534e-06 5.4116e-06 -0.001387
0 -0.32016 -0.987108 0.00139694 1.52555e-05 1.06355e-06 1.915e-06 4.56431e-06 -0.00139885
0 -0.353993 -0.987108 0.00140682 1.66461e-05 1.05137e-06 1.89636e-06 3.83326e-06 -0.00140872
0 -0.386836 -0.987108 0.00141495 1.78638e-05 1.04096e-06 1.8856e-06 3.19073e-06 -0.00141684
0 -0.418658 -0.987108 0.00142149 1.89184e-05 1.02691e-06 1.87241e-06 2.6046e-06 -0.00142336
0 -0.449432 -0.987108 0.00142659 1.98206e-05 1.0057e-06 1.85012e-06 2.04864e-06 -0.00142844
0 -0.47914 -0.987108 0.00143038 2.05745e-05 9.75764e-07 1.81526e-06 1.50133e-06 -0.0014322
0 -0.507768 -0.987108 0.00143294 2.11833e-05 9.36272e-07 1.76611e-06 9.5065e-07 -0.0014347