# turbulenceProperties:R  FACE_DATA 3600
# x y z  turbulenceProperties:R_xx turbulenceProperties:R_xy turbulenceProperties:R_xz turbulenceProperties:R_yy turbulenceProperties:R_yz turbulenceProperties:R_zz
0 -0.02 -0.999 5.55386e-05 1.53665e-10 -1.00611e-06 5.55186e-05 -2.58783e-09 5.54999e-05
0 -0.0597753 -0.999 5.64366e-05 4.22718e-10 -1.03056e-06 5.6416e-05 -7.44236e-09 5.63968e-05
0 -0.0990586 -0.999 5.79038e-05 6.05121e-10 -1.07087e-06 5.7882e-05 -1.15443e-08 5.7862e-05
0 -0.137767 -0.999 5.95631e-05 7.01538e-10 -1.11703e-06 5.95399e-05 -1.48133e-08 5.95189e-05
0 -0.175822 -0.999 6.11546e-05 7.39615e-10 -1.16184e-06 6.11301e-05 -1.73971e-08 6.11081e-05
0 -0.213152 -0.999 6.25611e-05 7.4884e-10 -1.20187e-06 6.25355e-05 -1.95166e-08 6.25125e-05
0 -0.24969 -0.999 6.3756e-05 7.48015e-10 -1.2362e-06 6.37294e-05 -2.13461e-08 6.37056e-05
0 -0.285377 -0.999 6.47534e-05 7.46137e-10 -1.26506e-06 6.4726e-05 -2.29992e-08 6.47015e-05
0 -0.32016 -0.999 6.55794e-05 7.46175e-10 -1.28911e-06 6.55513e-05 -2.4537e-08 6.55262e-05
0 -0.353993 -0.999 6.62589e-05 7.486e-10 -1.309e-06 6.62303e-05 -2.59935e-08 6.62046e-05
0 -0.386836 -0.999 6.68138e-05 7.52696e-10 -1.3253e-06 6.67846e-05 -2.73803e-08 6.67586e-05
0 -0.418658 -0.999 6.72598e-05 7.57237e-10 -1.33844e-06 6.72303e-05 -2.8701e-08 6.72039e-05
0 -0.449432 -0.999 6.76082e-05 7.60926e-10 -1.34873e-06 6.75783e-05 -2.9945e-08 6.75517e-05
0 -0.47914 -0.999 6.78672e-05 7.6273e-10 -1.35639e-06 6.78372e-05 -3.11064e-08 6.78103e-05
0 -0.507768 -0.999 6.80423e-05 7.61616e-10 -1.36156e-06 6.8012e-05 -3.21771e-08 6.79851e-05
0 -0.53531 -0.999 6.81357e-05 7.57814e-10 -1.36432e-06 6.81054e-05 -3.31437e-08 6.80784e-05
0 -0.561764 -0.999 6.81572e-05 7.49916e-10 -1.36494e-06 6.81269e-05 -3.39977e-08 6.80998e-05
0 -0.587133 -0.999 6.8103e-05 7.3608e-10 -1.36331e-06 6.80728e-05 -3.47283e-08 6.80457e-05
0 -0.611426 -0.999 6.7974e-05 7.16052e-10 -1.35945e-06 6.79438e-05 -3.53229e-08 6.79169e-05
0 -0.634656 -0.999 6.77688e-05 6.88001e-10 -1.35334e-06 6.77388e-05 -3.5765e-08 6.77121e-05
0 -0.656838 -0.999 6.74831e-05 6.50344e-10 -1.34486e-06 6.74534e-05 -3.60408e-08 6.74268e-05
0 -0.677993 -0.999 6.71121e-05 6.02071e-10 -1.33387e-06 6.70827e-05 -3.61427e-08 6.70565e-05
0 -0.698143 -0.999 6.66506e-05 5.42355e-10 -1.32023e-06 6.66215e-05 -3.60668e-08 6.65956e-05
0 -0.717314 -0.999 6.60932e-05 4.71101e-10 -1.30383e-06 6.60646e-05 -3.58164e-08 6.60392e-05
0 -0.735531 -0.999 6.54367e-05 3.88653e-10 -1.28459e-06 6.54087e-05 -3.53975e-08 6.53837e-05
0 -0.752825 -0.999 6.46792e-05 2.9573e-10 -1.26251e-06 6.46518e-05 -3.48197e-08 6.46274e-05
0 -0.769225 -0.999 6.38211e-05 1.9396e-10 -1.23765e-06 6.37944e-05 -3.4101e-08 6.37707e-05
0 -0.784762 -0.999 6.28659e-05 8.53113e-11 -1.21016e-06 6.28399e-05 -3.32611e-08 6.28169e-05
0 -0.799469 -0.999 6.18193e-05 -2.85203e-11 -1.18027e-06 6.17942e-05 -3.23219e-08 6.17719e-05
0 -0.813378 -0.999 6.06885e-05 -1.46667e-10 -1.14825e-06 6.06642e-05 -3.12994e-08 6.06428e-05
0 -0.826521 -0.999 5.948e-05 -2.68816e-10 -1.11434e-06 5.94567e-05 -3.02077e-08 5.94361e-05
0 -0.838932 -0.999 5.82001e-05 -3.94774e-10 -1.07879e-06 5.81778e-05 -2.90597e-08 5.8158e-05
0 -0.850642 -0.999 5.68544e-05 -5.24346e-10 -1.04182e-06 5.6833e-05 -2.78658e-08 5.68141e-05
0 -0.861683 -0.999 5.54481e-05 -6.57303e-10 -1.00364e-06 5.54278e-05 -2.6635e-08 5.54098e-05
0 -0.872087 -0.999 5.39863e-05 -7.93334e-10 -9.64436e-07 5.3967e-05 -2.53757e-08 5.39499e-05
0 -0.881884 -0.999 5.24737e-05 -9.32366e-10 -9.24409e-07 5.24554e-05 -2.40941e-08 5.24393e-05
0 -0.891106 -0.999 5.09144e-05 -1.07496e-09 -8.83729e-07 5.08972e-05 -2.27936e-08 5.0882e-05
0 -0.89978 -0.999 4.93114e-05 -1.22258e-09 -8.42529e-07 4.92952e-05 -2.14756e-08 4.9281e-05
0 -0.907935 -0.999 4.76654e-05 -1.37744e-09 -8.00893e-07 4.76503e-05 -2.01393e-08 4.76369e-05
0 -0.915599 -0.999 4.59749e-05 -1.53834e-09 -7.58848e-07 4.59608e-05 -1.87862e-08 4.59484e-05
0 -0.922797 -0.999 4.42424e-05 -1.70129e-09 -7.16527e-07 4.42293e-05 -1.74344e-08 4.42178e-05
0 -0.929556 -0.999 4.24721e-05 -1.87309e-09 -6.74104e-07 4.24599e-05 -1.60647e-08 4.24495e-05
0 -0.935899 -0.999 4.06563e-05 -2.06902e-09 -6.31468e-07 4.06451e-05 -1.46287e-08 4.06356e-05
0 -0.941851 -0.999 3.87778e-05 -2.30125e-09 -5.88309e-07 3.87675e-05 -1.31088e-08 3.8759e-05
0 -0.947432 -0.999 3.68127e-05 -2.58527e-09 -5.44223e-07 3.68033e-05 -1.14933e-08 3.67959e-05
0 -0.952665 -0.999 3.4724e-05 -2.94285e-09 -4.98593e-07 3.47155e-05 -9.76497e-09 3.47092e-05
0 -0.95757 -0.999 3.24599e-05 -3.39132e-09 -4.50616e-07 3.24523e-05 -7.92419e-09 3.24471e-05
0 -0.962166 -0.999 2.99592e-05 -3.92924e-09 -3.99513e-07 2.99525e-05 -6.00353e-09 2.99485e-05
0 -0.966471 -0.999 2.71639e-05 -4.51779e-09 -3.44861e-07 2.71583e-05 -4.09005e-09 2.71553e-05
0 -0.970503 -0.999 2.40406e-05 -5.06462e-09 -2.87064e-07 2.4036e-05 -2.32312e-09 2.4034e-05
0 -0.974278 -0.999 2.06074e-05 -5.42319e-09 -2.27782e-07 2.0604e-05 -8.82407e-10 2.06026e-05
0 -0.977811 -0.999 1.69609e-05 -5.4314e-09 -1.70077e-07 1.69585e-05 8.27205e-11 1.69576e-05
0 -0.981118 -0.999 1.32819e-05 -4.98846e-09 -1.17894e-07 1.32805e-05 5.15886e-10 1.32797e-05
0 -0.984213 -0.999 9.80963e-06 -4.13889e-09 -7.48963e-08 9.80903e-06 5.21337e-10 9.80833e-06
0 -0.987108 -0.999 6.77372e-06 -3.07703e-09 -4.3048e-08 6.77354e-06 3.11685e-10 6.77298e-06
0 -0.989816 -0.999 4.32161e-06 -2.04602e-09 -2.19956e-08 4.32159e-06 1.09969e-10 4.32125e-06
0 -0.992348 -0.999 2.48621e-06 -1.20654e-09 -9.62549e-09 2.48621e-06 1.7227e-11 2.48609e-06
0 -0.994716 -0.999 1.21892e-06 -6.04526e-10 -3.30399e-09 1.21892e-06 -1.67977e-12 1.21889e-06
0 -0.99693 -0.999 4.42148e-07 -2.25729e-10 -7.08728e-10 4.42148e-07 -8.68433e-13 4.42145e-07
0 -0.999 -0.999 9.15939e-08 -4.92878e-11 -4.92878e-11 9.15938e-08 -4.12609e-14 9.15938e-08
0 -0.02 -0.99693 8.19746e-05 4.98031e-09 -8.74878e-06 8.09145e-05 -1.79724e-08 7.98376e-05
0 -0.0597753 -0.99693 8.33306e-05 1.38979e-08 -8.96134e-06 8.2235e-05 -5.23308e-08 8.11244e-05
0 -0.0990586 -0.99693 8.56188e-05 2.04545e-08 -9.31964e-06 8.44633e-05 -8.29401e-08 8.32952e-05
0 -0.137767 -0.99693 8.83169e-05 2.46462e-08 -9.74173e-06 8.70905e-05 -1.09242e-07 8.58536e-05
0 -0.175822 -0.99693 9.10189e-05 2.71808e-08 -1.01642e-05 8.97216e-05 -1.31711e-07 8.84148e-05
0 -0.213152 -0.99693 9.35001e-05 2.88295e-08 -1.05521e-05 9.21374e-05 -1.51263e-07 9.07655e-05
0 -0.24969 -0.99693 9.5673e-05 3.00943e-08 -1.08922e-05 9.4253e-05 -1.68697e-07 9.28232e-05
0 -0.285377 -0.99693 9.75281e-05 3.12272e-08 -1.1183e-05 9.60589e-05 -1.84606e-07 9.45793e-05
0 -0.32016 -0.99693 9.90908e-05 3.23197e-08 -1.14284e-05 9.75799e-05 -1.99349e-07 9.60579e-05
0 -0.353993 -0.99693 0.000100392 3.33937e-08 -1.16331e-05 9.88458e-05 -2.13151e-07 9.72882e-05
0 -0.386836 -0.99693 0.000101463 3.44348e-08 -1.1802e-05 9.98884e-05 -2.26105e-07 9.83013e-05
0 -0.418658 -0.99693 0.000102328 3.54109e-08 -1.19387e-05 0.00010073 -2.38242e-07 9.91194e-05
0 -0.449432 -0.99693 0.000103006 3.6284e-08 -1.2046e-05 0.00010139 -2.49503e-07 9.976e-05
0 -0.47914 -0.99693 0.000103512 3.70235e-08 -1.21262e-05 0.000101882 -2.59852e-07 0.000100238
0 -0.507768 -0.99693 0.000103856 3.75958e-08 -1.21805e-05 0.000102217 -2.69223e-07 0.000100563
0 -0.53531 -0.99693 0.000104032 3.8001e-08 -1.22086e-05 0.000102388 -2.77503e-07 0.000100729
0 -0.561764 -0.99693 0.000104074 3.8205e-08 -1.22151e-05 0.000102428 -2.84693e-07 0.000100769
0 -0.587133 -0.99693 0.000103966 3.81463e-08 -1.21979e-05 0.000102323 -2.90682e-07 0.000100667
0 -0.611426 -0.99693 0.000103711 3.7816e-08 -1.21573e-05 0.000102075 -2.95392e-07 0.000100426
0 -0.634656 -0.99693 0.000103308 3.71616e-08 -1.20932e-05 0.000101684 -2.98738e-07 0.000100046
0 -0.656838 -0.99693 0.000102754 3.61379e-08 -1.20049e-05 0.000101144 -3.00647e-07 9.95226e-05
0 -0.677993 -0.99693 0.000102041 3.47181e-08 -1.18915e-05 0.000100451 -3.01088e-07 9.88502e-05
0 -0.698143 -0.99693 0.000101166 3.2882e-08 -1.1752e-05 9.95986e-05 -3.00052e-07 9.80231e-05
0 -0.717314 -0.99693 0.000100119 3.06317e-08 -1.15855e-05 9.85802e-05 -2.97574e-07 9.70345e-05
0 -0.735531 -0.99693 9.88962e-05 2.79842e-08 -1.13914e-05 9.73904e-05 -2.93708e-07 9.58792e-05
0 -0.752825 -0.99693 9.7498e-05 2.49715e-08 -1.117e-05 9.60296e-05 -2.88549e-07 9.45575e-05
0 -0.769225 -0.99693 9.59265e-05 2.16509e-08 -1.09222e-05 9.44999e-05 -2.82232e-07 9.30712e-05
0 -0.784762 -0.99693 9.41905e-05 1.80909e-08 -1.06497e-05 9.28094e-05 -2.74909e-07 9.14281e-05
0 -0.799469 -0.99693 9.23006e-05 1.43528e-08 -1.0355e-05 9.09686e-05 -2.66747e-07 8.96379e-05
0 -0.813378 -0.99693 9.02708e-05 1.04755e-08 -1.00407e-05 8.89907e-05 -2.57889e-07 8.77135e-05
0 -0.826521 -0.99693 8.81165e-05 6.48172e-09 -9.70958e-06 8.68905e-05 -2.48469e-07 8.56691e-05
0 -0.838932 -0.99693 8.58511e-05 2.38895e-09 -9.36434e-06 8.46811e-05 -2.38606e-07 8.35173e-05
0 -0.850642 -0.99693 8.34873e-05 -1.78639e-09 -9.00735e-06 8.23745e-05 -2.28396e-07 8.12695e-05
0 -0.861683 -0.99693 8.10376e-05 -6.02833e-09 -8.64095e-06 7.99829e-05 -2.1793e-07 7.89376e-05
0 -0.872087 -0.99693 7.85134e-05 -1.03203e-08 -8.2673e-06 7.75172e-05 -2.07282e-07 7.65319e-05
0 -0.881884 -0.99693 7.59257e-05 -1.46527e-08 -7.88846e-06 7.49881e-05 -1.96517e-07 7.40628e-05
0 -0.891106 -0.99693 7.32852e-05 -1.90342e-08 -7.50634e-06 7.24058e-05 -1.85684e-07 7.15403e-05
0 -0.89978 -0.99693 7.06007e-05 -2.3497e-08 -7.12257e-06 6.97789e-05 -1.7482e-07 6.89726e-05
0 -0.907935 -0.99693 6.78794e-05 -2.80956e-08 -6.73842e-06 6.71144e-05 -1.6394e-07 6.63665e-05
0 -0.915599 -0.99693 6.51236e-05 -3.28022e-08 -6.35452e-06 6.44144e-05 -1.53046e-07 6.37238e-05
0 -0.922797 -0.99693 6.23384e-05 -3.75297e-08 -5.972e-06 6.16838e-05 -1.42189e-07 6.10495e-05
0 -0.929556 -0.99693 5.95288e-05 -4.24398e-08 -5.59195e-06 5.89271e-05 -1.31361e-07 5.8348e-05
0 -0.935899 -0.99693 5.67004e-05 -4.79045e-08 -5.21495e-06 5.61499e-05 -1.20509e-07 5.5625e-05
0 -0.941851 -0.99693 5.38489e-05 -5.4251e-08 -4.84017e-06 5.33481e-05 -1.09622e-07 5.28767e-05
0 -0.947432 -0.99693 5.09587e-05 -6.19049e-08 -4.46555e-06 5.05061e-05 -9.86871e-08 5.00876e-05
0 -0.952665 -0.99693 4.79926e-05 -7.14583e-08 -4.0869e-06 4.75876e-05 -8.76495e-08 4.7222e-05
0 -0.95757 -0.99693 4.48865e-05 -8.34169e-08 -3.69773e-06 4.45287e-05 -7.64459e-08 4.42164e-05
0 -0.962166 -0.99693 4.15483e-05 -9.78472e-08 -3.29031e-06 4.12385e-05 -6.5023e-08 4.09797e-05
0 -0.966471 -0.99693 3.78654e-05 -1.13875e-07 -2.85764e-06 3.76052e-05 -5.34002e-08 3.73993e-05
0 -0.970503 -0.99693 3.37276e-05 -1.29161e-07 -2.39723e-06 3.35185e-05 -4.17197e-08 3.33632e-05
0 -0.974278 -0.99693 2.90689e-05 -1.3967e-07 -1.91577e-06 2.89114e-05 -3.03916e-08 2.88014e-05
0 -0.977811 -0.99693 2.39288e-05 -1.40476e-07 -1.43334e-06 2.38205e-05 -2.01016e-08 2.37475e-05
0 -0.981118 -0.99693 1.85062e-05 -1.27936e-07 -9.82839e-07 1.84406e-05 -1.17903e-08 1.83948e-05
0 -0.984213 -0.99693 1.31773e-05 -1.02692e-07 -6.02239e-07 1.31438e-05 -6.12566e-09 1.31165e-05
0 -0.987108 -0.99693 8.43101e-06 -7.0865e-08 -3.20165e-07 8.4172e-06 -3.05966e-09 8.40234e-06
0 -0.989816 -0.99693 4.68845e-06 -4.10685e-08 -1.42067e-07 4.68387e-06 -1.55396e-09 4.67748e-06
0 -0.992348 -0.99693 2.15878e-06 -1.92982e-08 -4.93686e-08 2.1575e-06 -6.57953e-10 2.15573e-06
0 -0.994716 -0.99693 7.59357e-07 -6.70158e-09 -1.17034e-08 7.59073e-07 -1.6993e-10 7.58845e-07
0 -0.99693 -0.99693 2.04505e-07 -1.36992e-09 -1.36992e-09 2.04475e-07 -1.58169e-11 2.04475e-07
0 -0.999 -0.99693 4.42149e-07 -7.08728e-10 -2.25729e-10 4.42145e-07 -8.6827e-13 4.42148e-07
0 -0.02 -0.994716 0.00058952 1.84343e-07 -0.000157353 0.000530333 -2.18418e-07 0.000469439
0 -0.0597753 -0.994716 0.000599288 5.20837e-07 -0.000160616 0.000538411 -6.53123e-07 0.000475866
0 -0.0990586 -0.994716 0.000615801 7.84372e-07 -0.000166106 0.00055208 -1.0796e-06 0.000486746
0 -0.137767 -0.994716 0.000635315 9.74228e-07 -0.000172557 0.000568255 -1.48764e-06 0.000499617
0 -0.175822 -0.994716 0.000654899 1.11082e-06 -0.000178994 0.000584507 -1.86715e-06 0.000512547
0 -0.213152 -0.994716 0.000672909 1.21659e-06 -0.000184888 0.000599469 -2.2141e-06 0.000524445
0 -0.24969 -0.994716 0.000688695 1.30632e-06 -0.000190037 0.000612592 -2.5294e-06 0.000534875
0 -0.285377 -0.994716 0.000702178 1.38774e-06 -0.000194425 0.000623803 -2.8169e-06 0.000543778
0 -0.32016 -0.994716 0.000713537 1.46391e-06 -0.000198118 0.000633248 -3.0806e-06 0.000551274
0 -0.353993 -0.994716 0.000722991 1.53582e-06 -0.000201188 0.000641108 -3.32389e-06 0.000557506
0 -0.386836 -0.994716 0.000730777 1.60326e-06 -0.000203716 0.00064758 -3.54889e-06 0.000562634
0 -0.418658 -0.994716 0.000737064 1.66538e-06 -0.000205758 0.000652804 -3.75686e-06 0.000566771
0 -0.449432 -0.994716 0.000741986 1.72109e-06 -0.000207356 0.000656892 -3.94791e-06 0.000570007
0 -0.47914 -0.994716 0.00074566 1.76944e-06 -0.000208549 0.000659943 -4.12208e-06 0.000572422
0 -0.507768 -0.994716 0.000748154 1.80927e-06 -0.000209358 0.000662014 -4.27876e-06 0.000574064
0 -0.53531 -0.994716 0.000749427 1.84063e-06 -0.000209774 0.000663067 -4.41683e-06 0.000574897
0 -0.561764 -0.994716 0.000749725 1.86256e-06 -0.00020987 0.000663313 -4.53706e-06 0.000575098
0 -0.587133 -0.994716 0.00074894 1.87293e-06 -0.000209615 0.000662659 -4.63832e-06 0.00057459
0 -0.611426 -0.994716 0.000747079 1.87154e-06 -0.00020901 0.00066111 -4.72012e-06 0.000573376
0 -0.634656 -0.994716 0.000744148 1.85683e-06 -0.000208058 0.000658673 -4.78232e-06 0.000571463
0 -0.656838 -0.994716 0.00074011 1.82746e-06 -0.000206744 0.000655316 -4.82478e-06 0.000568827
0 -0.677993 -0.994716 0.000734928 1.78263e-06 -0.000205056 0.000651011 -4.84768e-06 0.000565447
0 -0.698143 -0.994716 0.000728559 1.72172e-06 -0.000202979 0.000645722 -4.85133e-06 0.000561292
0 -0.717314 -0.994716 0.000720948 1.64476e-06 -0.000200494 0.000639404 -4.83628e-06 0.000556326
0 -0.735531 -0.994716 0.000712041 1.55231e-06 -0.000197584 0.000632007 -4.80314e-06 0.000550506
0 -0.752825 -0.994716 0.000701858 1.44554e-06 -0.000194258 0.000623548 -4.7532e-06 0.000543841
0 -0.769225 -0.994716 0.000690416 1.32624e-06 -0.000190521 0.000614037 -4.68764e-06 0.000536334
0 -0.784762 -0.994716 0.000677777 1.19662e-06 -0.000186396 0.000603521 -4.60788e-06 0.000528015
0 -0.799469 -0.994716 0.000664015 1.05869e-06 -0.00018191 0.000592056 -4.51556e-06 0.000518922
0 -0.813378 -0.994716 0.00064923 9.13861e-07 -0.000177097 0.000579719 -4.41251e-06 0.000509111
0 -0.826521 -0.994716 0.000633532 7.63043e-07 -0.000171996 0.000566597 -4.30056e-06 0.000498646
0 -0.838932 -0.994716 0.00061702 6.06903e-07 -0.000166639 0.000552768 -4.18128e-06 0.000487582
0 -0.850642 -0.994716 0.000599782 4.46082e-07 -0.000161059 0.000538302 -4.05598e-06 0.00047597
0 -0.861683 -0.994716 0.000581912 2.81182e-07 -0.000155288 0.000523271 -3.92584e-06 0.000463864
0 -0.872087 -0.994716 0.000563491 1.12768e-07 -0.000149355 0.00050774 -3.79178e-06 0.000451309
0 -0.881884 -0.994716 0.000544601 -5.87856e-08 -0.000143287 0.000491772 -3.65471e-06 0.000438353
0 -0.891106 -0.994716 0.000525318 -2.33667e-07 -0.000137112 0.000475429 -3.51555e-06 0.000425041
0 -0.89978 -0.994716 0.000505709 -4.12794e-07 -0.000130852 0.000458761 -3.37527e-06 0.000411412
0 -0.907935 -0.994716 0.000485831 -5.97855e-07 -0.000124528 0.000441815 -3.23439e-06 0.000397498
0 -0.915599 -0.994716 0.000465707 -7.88667e-07 -0.000118149 0.000424607 -3.0922e-06 0.00038331
0 -0.922797 -0.994716 0.00044537 -9.84807e-07 -0.000111728 0.000407159 -2.94566e-06 0.000368862
0 -0.929556 -0.994716 0.000424824 -1.19041e-06 -0.000105271 0.000389467 -2.79912e-06 0.00035416
0 -0.935899 -0.994716 0.000404121 -1.41441e-06 -9.87884e-05 0.000371575 -2.6622e-06 0.00033924
0 -0.941851 -0.994716 0.00038326 -1.66843e-06 -9.22753e-05 0.000353484 -2.53784e-06 0.0003241
0 -0.947432 -0.994716 0.000362138 -1.96828e-06 -8.56973e-05 0.000335099 -2.42828e-06 0.000308661
0 -0.952665 -0.994716 0.000340506 -2.33451e-06 -7.89813e-05 0.000316196 -2.33639e-06 0.00029272
0 -0.95757 -0.994716 0.000317937 -2.78535e-06 -7.20122e-05 0.000296377 -2.2612e-06 0.000275909
0 -0.962166 -0.994716 0.000293815 -3.3253e-06 -6.46436e-05 0.000275063 -2.19396e-06 0.000257668
0 -0.966471 -0.994716 0.000267383 -3.92821e-06 -5.67284e-05 0.000251525 -2.1145e-06 0.000237259
0 -0.970503 -0.994716 0.00023789 -4.51754e-06 -4.81793e-05 0.000225001 -1.99032e-06 0.000213863
0 -0.974278 -0.994716 0.000204858 -4.9539e-06 -3.90597e-05 0.000194949 -1.78511e-06 0.000186814
0 -0.977811 -0.994716 0.000168487 -5.05527e-06 -2.96832e-05 0.00016143 -1.47778e-06 0.000155987
0 -0.981118 -0.994716 0.000130052 -4.66744e-06 -2.06524e-05 0.000125523 -1.09058e-06 0.000122263
0 -0.984213 -0.994716 9.2089e-05 -3.77946e-06 -1.27651e-05 8.95606e-05 -6.94181e-07 8.78556e-05
0 -0.987108 -0.994716 5.79933e-05 -2.5902e-06 -6.73146e-06 5.6816e-05 -3.73934e-07 5.60664e-05
0 -0.989816 -0.994716 3.11543e-05 -1.44295e-06 -2.86598e-06 3.07128e-05 -1.65803e-07 3.04664e-05
0 -0.992348 -0.994716 1.33472e-05 -5.99095e-07 -8.78509e-07 1.32254e-05 -5.18836e-08 1.31826e-05
0 -0.994716 -0.994716 4.02692e-06 -1.42152e-07 -1.42152e-07 4.01011e-06 -7.08078e-09 4.01011e-06
0 -0.99693 -0.994716 7.59357e-07 -1.17034e-08 -6.70158e-09 7.58845e-07 -1.69927e-10 7.59073e-07
0 -0.999 -0.994716 1.21892e-06 -3.30399e-09 -6.04527e-10 1.21889e-06 -1.67826e-12 1.21892e-06
0 -0.02 -0.992348 0.00198305 1.08178e-06 -0.000645688 0.00154333 -3.44611e-07 0.00109732
0 -0.0597753 -0.992348 0.00200908 3.0587e-06 -0.000654401 0.00156109 -1.17447e-06 0.00110743
0 -0.0990586 -0.992348 0.00205301 4.61595e-06 -0.000669067 0.00159124 -2.29684e-06 0.00112473
0 -0.137767 -0.992348 0.00210483 5.75686e-06 -0.000686301 0.00162706 -3.65305e-06 0.00114546
0 -0.175822 -0.992348 0.00215673 6.59993e-06 -0.000703498 0.00166318 -5.0909e-06 0.00116655
0 -0.213152 -0.992348 0.00220433 7.26789e-06 -0.000719226 0.00169652 -6.48473e-06 0.00118614
0 -0.24969 -0.992348 0.00224593 7.83909e-06 -0.00073294 0.0017258 -7.77213e-06 0.00120343
0 -0.285377 -0.992348 0.00228133 8.35408e-06 -0.000744595 0.0017508 -8.9388e-06 0.00121825
0 -0.32016 -0.992348 0.00231106 8.82912e-06 -0.000754369 0.00177184 -9.99208e-06 0.00123075
0 -0.353993 -0.992348 0.00233573 9.26983e-06 -0.000762471 0.00178933 -1.09455e-05 0.00124116
0 -0.386836 -0.992348 0.00235599 9.67597e-06 -0.000769121 0.0018037 -1.18113e-05 0.00124971
0 -0.418658 -0.992348 0.00237231 1.00434e-05 -0.000774474 0.00181528 -1.25998e-05 0.00125661
0 -0.449432 -0.992348 0.00238504 1.03679e-05 -0.000778651 0.00182432 -1.33173e-05 0.001262
0 -0.47914 -0.992348 0.00239453 1.06447e-05 -0.000781763 0.00183104 -1.3968e-05 0.00126601
0 -0.507768 -0.992348 0.00240094 1.08683e-05 -0.000783868 0.00183558 -1.45532e-05 0.00126874
0 -0.53531 -0.992348 0.0024042 1.10409e-05 -0.000784937 0.00183785 -1.50721e-05 0.00127008
0 -0.561764 -0.992348 0.00240492 1.1157e-05 -0.000785178 0.00183832 -1.55314e-05 0.0012704
0 -0.587133 -0.992348 0.00240283 1.12056e-05 -0.000784499 0.00183679 -1.59321e-05 0.00126952
0 -0.611426 -0.992348 0.00239794 1.11869e-05 -0.000782905 0.00183326 -1.62762e-05 0.00126747
0 -0.634656 -0.992348 0.00239026 1.10936e-05 -0.000780396 0.00182774 -1.65695e-05 0.00126424
0 -0.656838 -0.992348 0.00237968 1.0919e-05 -0.00077694 0.00182016 -1.68175e-05 0.00125981
0 -0.677993 -0.992348 0.00236612 1.06593e-05 -0.000772505 0.00181046 -1.70247e-05 0.00125416
0 -0.698143 -0.992348 0.00234944 1.03109e-05 -0.000767048 0.00179857 -1.71953e-05 0.00124724
0 -0.717314 -0.992348 0.0023295 9.8731e-06 -0.000760516 0.00178438 -1.73324e-05 0.00123899
0 -0.735531 -0.992348 0.00230614 9.34825e-06 -0.000752859 0.00176779 -1.74384e-05 0.00122935
0 -0.752825 -0.992348 0.00227937 8.74103e-06 -0.000744075 0.0017488 -1.75157e-05 0.0012183
0 -0.769225 -0.992348 0.00224919 8.05907e-06 -0.00073416 0.0017274 -1.75645e-05 0.00120585
0 -0.784762 -0.992348 0.0022157 7.31191e-06 -0.00072315 0.00170368 -1.75847e-05 0.00119202
0 -0.799469 -0.992348 0.00217906 6.50762e-06 -0.000711086 0.00167771 -1.75777e-05 0.00117684
0 -0.813378 -0.992348 0.00213945 5.65137e-06 -0.000698029 0.00164963 -1.75476e-05 0.0011604
0 -0.826521 -0.992348 0.00209711 4.74536e-06 -0.000684054 0.00161959 -1.74999e-05 0.00114277
0 -0.838932 -0.992348 0.00205224 3.7901e-06 -0.000669225 0.00158772 -1.74392e-05 0.00112403
0 -0.850642 -0.992348 0.00200502 2.78595e-06 -0.000653597 0.00155416 -1.73695e-05 0.00110423
0 -0.861683 -0.992348 0.00195566 1.73288e-06 -0.000637231 0.00151903 -1.72942e-05 0.00108346
0 -0.872087 -0.992348 0.0019043 6.3017e-07 -0.000620177 0.00148243 -1.7216e-05 0.00106177
0 -0.881884 -0.992348 0.00185112 -5.24043e-07 -0.000602485 0.00144447 -1.71384e-05 0.00103922
0 -0.891106 -0.992348 0.00179627 -1.73511e-06 -0.0005842 0.00140525 -1.70664e-05 0.00101586
0 -0.89978 -0.992348 0.00173987 -3.01301e-06 -0.00056536 0.00136485 -1.70073e-05 0.000991752
0 -0.907935 -0.992348 0.00168204 -4.37268e-06 -0.000545998 0.00132335 -1.69671e-05 0.00096693
0 -0.915599 -0.992348 0.00162283 -5.82426e-06 -0.000526122 0.00128074 -1.69459e-05 0.000941414
0 -0.922797 -0.992348 0.00156223 -7.39583e-06 -0.000505724 0.00123704 -1.69439e-05 0.000915199
0 -0.929556 -0.992348 0.00150005 -9.11597e-06 -0.000484733 0.00119206 -1.70006e-05 0.000888157
0 -0.935899 -0.992348 0.00143638 -1.10307e-05 -0.000463157 0.0011459 -1.71811e-05 0.000860388
0 -0.941851 -0.992348 0.00137121 -1.32448e-05 -0.000440963 0.00109853 -1.75429e-05 0.000831965
0 -0.947432 -0.992348 0.00130416 -1.59049e-05 -0.000417982 0.00104965 -1.81542e-05 0.000802726
0 -0.952665 -0.992348 0.0012344 -1.91888e-05 -0.000393885 0.000998588 -1.90856e-05 0.00077224
0 -0.95757 -0.992348 0.00116058 -2.32722e-05 -0.000368153 0.000944232 -2.03742e-05 0.000739683
0 -0.962166 -0.992348 0.00108077 -2.82527e-05 -0.000340056 0.000884898 -2.19683e-05 0.000703713
0 -0.966471 -0.992348 0.000992456 -3.40244e-05 -0.000308689 0.000818363 -2.36568e-05 0.000662382
0 -0.970503 -0.992348 0.000892874 -4.01043e-05 -0.000273123 0.000742056 -2.50017e-05 0.000613154
0 -0.974278 -0.992348 0.000779684 -4.54537e-05 -0.000232729 0.000653657 -2.5341e-05 0.000553224
0 -0.977811 -0.992348 0.000652106 -4.84544e-05 -0.000187712 0.000552123 -2.39236e-05 0.00048024
0 -0.981118 -0.992348 0.000512617 -4.72375e-05 -0.000139778 0.000439177 -2.0302e-05 0.000393659
0 -0.984213 -0.992348 0.000368605 -4.05888e-05 -9.25816e-05 0.000320708 -1.47827e-05 0.000296638
0 -0.987108 -0.992348 0.000232846 -2.90747e-05 -5.13314e-05 0.000207046 -8.65904e-06 0.0001975
0 -0.989816 -0.992348 0.000121894 -1.58287e-05 -2.142e-05 0.000111809 -3.58186e-06 0.000109698
0 -0.992348 -0.992348 4.87769e-05 -5.45862e-06 -5.45863e-06 4.66036e-05 -7.6922e-07 4.66036e-05
0 -0.994716 -0.992348 1.33472e-05 -8.78508e-07 -5.99096e-07 1.31826e-05 -5.18835e-08 1.32254e-05
0 -0.99693 -0.992348 2.15878e-06 -4.93686e-08 -1.92982e-08 2.15573e-06 -6.57933e-10 2.1575e-06
0 -0.999 -0.992348 2.48621e-06 -9.6255e-09 -1.20654e-09 2.48609e-06 1.7233e-11 2.48621e-06
0 -0.02 -0.989816 0.00351484 2.25643e-06 -0.00113714 0.00255995 4.34173e-07 0.00160177
0 -0.0597753 -0.989816 0.00354578 6.31651e-06 -0.0011471 0.00258125 7.36092e-07 0.00161499
0 -0.0990586 -0.989816 0.00359872 9.37121e-06 -0.00116415 0.00261789 -1.62304e-07 0.00163768
0 -0.137767 -0.989816 0.00366217 1.14623e-05 -0.00118458 0.0026621 -2.10066e-06 0.001665
0 -0.175822 -0.989816 0.0037267 1.29002e-05 -0.00120535 0.00270738 -4.56756e-06 0.0016929
0 -0.213152 -0.989816 0.00378662 1.39821e-05 -0.00122464 0.00274968 -7.12007e-06 0.00171891
0 -0.24969 -0.989816 0.00383944 1.48856e-05 -0.00124164 0.00278714 -9.51956e-06 0.0017419
0 -0.285377 -0.989816 0.00388465 1.56943e-05 -0.00125619 0.00281932 -1.16841e-05 0.00176162
0 -0.32016 -0.989816 0.00392274 1.64362e-05 -0.00126844 0.0028465 -1.36101e-05 0.00177826
0 -0.353993 -0.989816 0.00395439 1.71171e-05 -0.00127862 0.00286912 -1.5321e-05 0.0017921
0 -0.386836 -0.989816 0.0039804 1.77326e-05 -0.00128699 0.00288773 -1.68456e-05 0.00180349
0 -0.418658 -0.989816 0.00400133 1.82712e-05 -0.00129372 0.0029027 -1.82102e-05 0.00181267
0 -0.449432 -0.989816 0.00401764 1.87236e-05 -0.00129897 0.00291435 -1.94358e-05 0.00181983
0 -0.47914 -0.989816 0.00402976 1.90792e-05 -0.00130288 0.00292299 -2.05369e-05 0.00182517
0 -0.507768 -0.989816 0.00403792 1.93289e-05 -0.00130551 0.00292877 -2.15206e-05 0.00182877
0 -0.53531 -0.989816 0.00404196 1.94786e-05 -0.00130681 0.00293156 -2.2392e-05 0.00183056
0 -0.561764 -0.989816 0.00404275 1.95143e-05 -0.00130708 0.00293201 -2.31699e-05 0.00183097
0 -0.587133 -0.989816 0.0040399 1.94147e-05 -0.00130618 0.00292982 -2.38635e-05 0.00182978
0 -0.611426 -0.989816 0.00403342 1.91806e-05 -0.00130412 0.00292499 -2.44835e-05 0.00182702
0 -0.634656 -0.989816 0.00402331 1.8796e-05 -0.00130089 0.00291752 -2.50503e-05 0.00182269
0 -0.656838 -0.989816 0.00400947 1.8247e-05 -0.00129647 0.00290736 -2.55824e-05 0.00181676
0 -0.677993 -0.989816 0.00399181 1.75241e-05 -0.00129083 0.00289444 -2.60944e-05 0.00180918
0 -0.698143 -0.989816 0.00397019 1.66187e-05 -0.00128392 0.00287867 -2.65991e-05 0.00179991
0 -0.717314 -0.989816 0.00394444 1.55275e-05 -0.00127569 0.00285993 -2.71043e-05 0.00178886
0 -0.735531 -0.989816 0.00391437 1.4253e-05 -0.00126607 0.00283811 -2.76161e-05 0.00177597
0 -0.752825 -0.989816 0.00387996 1.28012e-05 -0.00125506 0.00281318 -2.81375e-05 0.0017612
0 -0.769225 -0.989816 0.00384118 1.11852e-05 -0.00124264 0.00278514 -2.86646e-05 0.00174456
0 -0.784762 -0.989816 0.00379813 9.42059e-06 -0.00122885 0.00275407 -2.91932e-05 0.00172608
0 -0.799469 -0.989816 0.00375094 7.51794e-06 -0.00121373 0.00272004 -2.97222e-05 0.0017058
0 -0.813378 -0.989816 0.00369977 5.48057e-06 -0.00119732 0.00268317 -3.02592e-05 0.00168382
0 -0.826521 -0.989816 0.00364488 3.30455e-06 -0.00117972 0.00264364 -3.08154e-05 0.00166025
0 -0.838932 -0.989816 0.00358648 9.81367e-07 -0.00116098 0.0026016 -3.14026e-05 0.00163518
0 -0.850642 -0.989816 0.00352474 -1.49889e-06 -0.00114117 0.00255715 -3.20322e-05 0.00160868
0 -0.861683 -0.989816 0.00345986 -4.14797e-06 -0.00112034 0.00251044 -3.27158e-05 0.00158086
0 -0.872087 -0.989816 0.00339199 -6.98137e-06 -0.00109855 0.00246157 -3.34652e-05 0.0015518
0 -0.881884 -0.989816 0.00332126 -1.00192e-05 -0.00107584 0.00241061 -3.42969e-05 0.00152155
0 -0.891106 -0.989816 0.00324781 -1.32921e-05 -0.00105225 0.00235765 -3.52348e-05 0.0014902
0 -0.89978 -0.989816 0.00317173 -1.68437e-05 -0.0010278 0.00230274 -3.63122e-05 0.00145781
0 -0.907935 -0.989816 0.0030931 -2.07296e-05 -0.00100254 0.0022459 -3.75702e-05 0.00142446
0 -0.915599 -0.989816 0.00301194 -2.50051e-05 -0.000976458 0.00218706 -3.90514e-05 0.00139021
0 -0.922797 -0.989816 0.00292813 -2.97491e-05 -0.00094952 0.00212614 -4.08141e-05 0.00135504
0 -0.929556 -0.989816 0.00283741 -3.51187e-05 -0.000920748 0.002063 -4.28279e-05 0.00132229
0 -0.935899 -0.989816 0.0027411 -4.13518e-05 -0.000890361 0.00199755 -4.53119e-05 0.00129091
0 -0.941851 -0.989816 0.0026413 -4.87735e-05 -0.000858738 0.0019295 -4.85878e-05 0.00125914
0 -0.947432 -0.989816 0.00253739 -5.7813e-05 -0.000825572 0.00185827 -5.29456e-05 0.00122686
0 -0.952665 -0.989816 0.00242819 -6.89855e-05 -0.000790303 0.0017828 -5.87074e-05 0.0011936
0 -0.95757 -0.989816 0.00231187 -8.27784e-05 -0.000752052 0.00170129 -6.61278e-05 0.00115834
0 -0.962166 -0.989816 0.00218562 -9.94506e-05 -0.000709507 0.00161106 -7.52259e-05 0.00111932
0 -0.966471 -0.989816 0.00204556 -0.000118718 -0.000660893 0.00150841 -8.55587e-05 0.00107377
0 -0.970503 -0.989816 0.00188633 -0.000139317 -0.000603974 0.00138872 -9.5905e-05 0.00101783
0 -0.974278 -0.989816 0.00170142 -0.000158531 -0.000536397 0.00124708 -0.000104057 0.000946605
0 -0.977811 -0.989816 0.00148346 -0.000171917 -0.000456231 0.00107957 -0.0001067 0.000854776
0 -0.981118 -0.989816 0.00122702 -0.000173577 -0.00036331 0.000885722 -0.000100235 0.000737605
0 -0.984213 -0.989816 0.000933051 -0.000157747 -0.000260795 0.000671809 -8.19782e-05 0.00059355
0 -0.987108 -0.989816 0.000617298 -0.000120985 -0.000157065 0.000453355 -5.31706e-05 0.000427523
0 -0.989816 -0.989816 0.000324044 -6.823e-05 -6.82301e-05 0.000256198 -2.17399e-05 0.000256198
0 -0.992348 -0.989816 0.000121894 -2.142e-05 -1.58287e-05 0.000109698 -3.58186e-06 0.000111809
0 -0.994716 -0.989816 3.11542e-05 -2.86598e-06 -1.44295e-06 3.04664e-05 -1.65802e-07 3.07128e-05
0 -0.99693 -0.989816 4.68845e-06 -1.42067e-07 -4.10686e-08 4.67748e-06 -1.55389e-09 4.68387e-06
0 -0.999 -0.989816 4.32162e-06 -2.19956e-08 -2.04602e-09 4.32126e-06 1.09985e-10 4.32159e-06
0 -0.02 -0.987108 0.00459163 3.45393e-06 -0.00147573 0.00332999 1.8242e-06 0.00203947
0 -0.0597753 -0.987108 0.00462247 9.51977e-06 -0.00148558 0.00335084 4.36635e-06 0.00205254
0 -0.0990586 -0.987108 0.00467615 1.37409e-05 -0.00150274 0.00338742 4.5355e-06 0.00207536
0 -0.137767 -0.987108 0.00474182 1.62518e-05 -0.00152374 0.00343261 2.58017e-06 0.00210339
0 -0.175822 -0.987108 0.00480993 1.76774e-05 -0.00154553 0.00347992 -5.60058e-07 0.00213257
0 -0.213152 -0.987108 0.00487416 1.85825e-05 -0.00156608 0.00352492 -4.04145e-06 0.00216019
0 -0.24969 -0.987108 0.00493141 1.92849e-05 -0.00158439 0.00356528 -7.38674e-06 0.00218488
0 -0.285377 -0.987108 0.00498077 1.99155e-05 -0.00160017 0.00360026 -1.04088e-05 0.00220622
0 -0.32016 -0.987108 0.00502257 2.05047e-05 -0.00161354 0.00362998 -1.30745e-05 0.00222432
0 -0.353993 -0.987108 0.00505741 2.10455e-05 -0.00162467 0.0036548 -1.54097e-05 0.00223943
0 -0.386836 -0.987108 0.00508609 2.15187e-05 -0.00163384 0.00367525 -1.74578e-05 0.00225189
0 -0.418658 -0.987108 0.00510916 2.18962e-05 -0.00164123 0.00369169 -1.92617e-05 0.00226194
0 -0.449432 -0.987108 0.00512712 2.21576e-05 -0.00164698 0.00370443 -2.08598e-05 0.00226978
0 -0.47914 -0.987108 0.00514045 2.22822e-05 -0.00165126 0.00371383 -2.22781e-05 0.00227562
0 -0.507768 -0.987108 0.00514936 2.22592e-05 -0.00165412 0.00372002 -2.35324e-05 0.00227956
0 -0.53531 -0.987108 0.00515368 2.20917e-05 -0.00165553 0.00372286 -2.4637e-05 0.0022815
0 -0.561764 -0.987108 0.0051544 2.17522e-05 -0.0016558 0.00372307 -2.56247e-05 0.00228192
0 -0.587133 -0.987108 0.00515104 2.12112e-05 -0.00165476 0.00372029 -2.65157e-05 0.00228058