# U  FACE_DATA 3600
# x y z  U_x U_y U_z
0 -0.02 -0.999 0.0484104 0.000135971 -1.12337e-06
0 -0.0597753 -0.999 0.0487979 0.00038325 -2.11001e-06
0 -0.0990586 -0.999 0.0494225 0.00057539 -3.58068e-06
0 -0.137767 -0.999 0.0501168 0.000711778 -5.22265e-06
0 -0.175822 -0.999 0.0507707 0.000807409 -6.77586e-06
0 -0.213152 -0.999 0.0513393 0.000878895 -8.14188e-06
0 -0.24969 -0.999 0.0518155 0.000937563 -9.30514e-06
0 -0.285377 -0.999 0.0522085 0.000989888 -1.02844e-05
0 -0.32016 -0.999 0.0525308 0.001039 -1.11007e-05
0 -0.353993 -0.999 0.0527939 0.00108645 -1.17747e-05
0 -0.386836 -0.999 0.0530073 0.00113269 -1.23226e-05
0 -0.418658 -0.999 0.0531778 0.00117784 -1.27583e-05
0 -0.449432 -0.999 0.0533104 0.00122142 -1.30901e-05
0 -0.47914 -0.999 0.0534085 0.00126322 -1.33213e-05
0 -0.507768 -0.999 0.0534743 0.00130299 -1.34591e-05
0 -0.53531 -0.999 0.0535092 0.00134021 -1.35025e-05
0 -0.561764 -0.999 0.0535166 0.00137444 -1.34663e-05
0 -0.587133 -0.999 0.0534951 0.00140543 -1.33429e-05
0 -0.611426 -0.999 0.0534452 0.00143266 -1.31392e-05
0 -0.634656 -0.999 0.0533663 0.00145548 -1.28552e-05
0 -0.656838 -0.999 0.0532563 0.00147336 -1.24898e-05
0 -0.677993 -0.999 0.0531133 0.00148605 -1.20369e-05
0 -0.698143 -0.999 0.0529348 0.00149343 -1.14944e-05
0 -0.717314 -0.999 0.0527183 0.00149569 -1.08582e-05
0 -0.735531 -0.999 0.052462 0.001493 -1.01292e-05
0 -0.752825 -0.999 0.0521645 0.00148567 -9.30852e-06
0 -0.769225 -0.999 0.0518251 0.0014743 -8.4018e-06
0 -0.784762 -0.999 0.0514444 0.0014595 -7.41773e-06
0 -0.799469 -0.999 0.0510237 0.00144194 -6.37179e-06
0 -0.813378 -0.999 0.0505648 0.00142195 -5.28303e-06
0 -0.826521 -0.999 0.0500694 0.00139981 -4.16672e-06
0 -0.838932 -0.999 0.0495388 0.00137577 -3.03846e-06
0 -0.850642 -0.999 0.0489741 0.00134997 -1.91394e-06
0 -0.861683 -0.999 0.0483765 0.00132251 -8.07564e-07
0 -0.872087 -0.999 0.0477466 0.00129351 2.65499e-07
0 -0.881884 -0.999 0.0470852 0.00126293 1.28599e-06
0 -0.891106 -0.999 0.0463927 0.0012306 2.23563e-06
0 -0.89978 -0.999 0.0456689 0.00119625 3.09494e-06
0 -0.907935 -0.999 0.0449124 0.00115947 3.85352e-06
0 -0.915599 -0.999 0.0441208 0.00112011 4.54552e-06
0 -0.922797 -0.999 0.0432931 0.00107928 5.16373e-06
0 -0.929556 -0.999 0.0424296 0.00103484 5.4806e-06
0 -0.935899 -0.999 0.0415235 0.000981857 5.45927e-06
0 -0.941851 -0.999 0.0405624 0.000917888 5.13822e-06
0 -0.947432 -0.999 0.0395288 0.000840522 4.39475e-06
0 -0.952665 -0.999 0.038396 0.000746034 3.11645e-06
0 -0.95757 -0.999 0.0371249 0.000631154 1.28229e-06
0 -0.962166 -0.999 0.0356644 0.000494037 -1.0238e-06
0 -0.966471 -0.999 0.0339547 0.000336772 -3.45154e-06
0 -0.970503 -0.999 0.0319357 0.000166622 -5.43012e-06
0 -0.974278 -0.999 0.0295606 -9.45359e-07 -5.90973e-06
0 -0.977811 -0.999 0.0268161 -0.000144328 -3.97856e-06
0 -0.981118 -0.999 0.0237391 -0.000236981 1.27149e-06
0 -0.984213 -0.999 0.0204274 -0.000260007 8.64659e-06
0 -0.987108 -0.999 0.0170193 -0.000211465 1.57248e-05
0 -0.989816 -0.999 0.0136522 -0.000122669 1.66949e-05
0 -0.992348 -0.999 0.0104093 -4.67976e-05 1.1015e-05
0 -0.994716 -0.999 0.00731339 -9.18714e-06 4.33841e-06
0 -0.99693 -0.999 0.00435171 4.15176e-08 7.23483e-07
0 -0.999 -0.999 0.0014848 -1.22883e-08 -1.21891e-08
0 -0.02 -0.99693 0.148064 0.000368942 -0.000186023
0 -0.0597753 -0.99693 0.149246 0.00104576 -0.000193916
0 -0.0990586 -0.99693 0.151151 0.00158515 -0.000205696
0 -0.137767 -0.99693 0.15327 0.00198346 -0.000217819
0 -0.175822 -0.99693 0.155266 0.0022757 -0.000228197
0 -0.213152 -0.99693 0.157002 0.0025022 -0.000236402
0 -0.24969 -0.99693 0.158456 0.00269128 -0.000242738
0 -0.285377 -0.99693 0.159656 0.00285984 -0.000247653
0 -0.32016 -0.99693 0.160641 0.00301647 -0.000251496
0 -0.353993 -0.99693 0.161444 0.00316572 -0.000254524
0 -0.386836 -0.99693 0.162096 0.00330915 -0.000256914
0 -0.418658 -0.99693 0.162617 0.00344736 -0.000258797
0 -0.449432 -0.99693 0.163022 0.00357935 -0.000260252
0 -0.47914 -0.99693 0.163322 0.00370465 -0.000261316
0 -0.507768 -0.99693 0.163523 0.0038226 -0.000262036
0 -0.53531 -0.99693 0.163629 0.00393201 -0.000262444
0 -0.561764 -0.99693 0.163651 0.00403182 -0.000262577
0 -0.587133 -0.99693 0.163586 0.0041213 -0.000262435
0 -0.611426 -0.99693 0.163433 0.00419924 -0.000262067
0 -0.634656 -0.99693 0.163191 0.00426405 -0.000261479
0 -0.656838 -0.99693 0.162855 0.00431454 -0.000260638
0 -0.677993 -0.99693 0.162417 0.00435014 -0.000259505
0 -0.698143 -0.99693 0.161871 0.00437066 -0.000258032
0 -0.717314 -0.99693 0.161209 0.00437663 -0.000256153
0 -0.735531 -0.99693 0.160426 0.00436866 -0.00025383
0 -0.752825 -0.99693 0.159516 0.00434764 -0.000251018
0 -0.769225 -0.99693 0.158479 0.0043152 -0.000247674
0 -0.784762 -0.99693 0.157315 0.00427298 -0.000243778
0 -0.799469 -0.99693 0.156029 0.00422272 -0.000239365
0 -0.813378 -0.99693 0.154626 0.00416544 -0.000234493
0 -0.826521 -0.99693 0.153111 0.00410196 -0.000229193
0 -0.838932 -0.99693 0.151489 0.00403298 -0.000223499
0 -0.850642 -0.99693 0.149762 0.00395895 -0.00021745
0 -0.861683 -0.99693 0.147934 0.0038802 -0.000211076
0 -0.872087 -0.99693 0.146007 0.00379701 -0.000204421
0 -0.881884 -0.99693 0.143984 0.00370932 -0.000197569
0 -0.891106 -0.99693 0.141865 0.00361676 -0.00019061
0 -0.89978 -0.99693 0.13965 0.00351867 -0.000183648
0 -0.907935 -0.99693 0.137335 0.00341403 -0.000176721
0 -0.915599 -0.99693 0.134912 0.00330218 -0.000169532
0 -0.922797 -0.99693 0.132378 0.00318454 -0.00016257
0 -0.929556 -0.99693 0.129733 0.00305655 -0.000158516
0 -0.935899 -0.99693 0.126956 0.00290876 -0.000157558
0 -0.941851 -0.99693 0.124009 0.00273562 -0.00015904
0 -0.947432 -0.99693 0.12084 0.00253139 -0.00016389
0 -0.952665 -0.99693 0.117367 0.00228799 -0.000172909
0 -0.95757 -0.99693 0.113473 0.00199838 -0.000185852
0 -0.962166 -0.99693 0.109003 0.00165864 -0.000200919
0 -0.966471 -0.99693 0.103776 0.00127288 -0.000213774
0 -0.970503 -0.99693 0.0976116 0.000855834 -0.000217421
0 -0.974278 -0.99693 0.0903637 0.000438692 -0.000202072
0 -0.977811 -0.99693 0.0819841 6.56125e-05 -0.000159191
0 -0.981118 -0.99693 0.0725741 -0.000207807 -8.49624e-05
0 -0.984213 -0.99693 0.0624197 -0.000337928 7.77623e-06
0 -0.987108 -0.99693 0.0519422 -0.000311274 9.03055e-05
0 -0.989816 -0.99693 0.0415773 -0.000183111 0.0001176
0 -0.992348 -0.99693 0.0316009 -5.99467e-05 8.56447e-05
0 -0.994716 -0.99693 0.0220976 -6.63962e-07 3.71432e-05
0 -0.99693 -0.99693 0.0130389 7.48438e-06 7.48082e-06
0 -0.999 -0.99693 0.00435171 7.23681e-07 4.05637e-08
0 -0.02 -0.994716 0.250712 0.000557177 5.15222e-05
0 -0.0597753 -0.994716 0.252643 0.00158854 4.7088e-05
0 -0.0990586 -0.994716 0.255757 0.00243151 4.20857e-05
0 -0.137767 -0.994716 0.259218 0.00307729 3.9886e-05
0 -0.175822 -0.994716 0.262478 0.00356979 4.12915e-05
0 -0.213152 -0.994716 0.265311 0.00396246 4.52252e-05
0 -0.24969 -0.994716 0.267684 0.00429438 5.02897e-05
0 -0.285377 -0.994716 0.26964 0.00459002 5.54905e-05
0 -0.32016 -0.994716 0.271244 0.00486256 6.03353e-05
0 -0.353993 -0.994716 0.272552 0.00511941 6.45774e-05
0 -0.386836 -0.994716 0.273613 0.00536352 6.81392e-05
0 -0.418658 -0.994716 0.27446 0.0055962 7.09485e-05
0 -0.449432 -0.994716 0.275118 0.00581643 7.29987e-05
0 -0.47914 -0.994716 0.275604 0.00602369 7.43684e-05
0 -0.507768 -0.994716 0.27593 0.00621701 7.50072e-05
0 -0.53531 -0.994716 0.276103 0.00639501 7.48844e-05
0 -0.561764 -0.994716 0.276138 0.00655624 7.40632e-05
0 -0.587133 -0.994716 0.27603 0.00669957 7.24889e-05
0 -0.611426 -0.994716 0.275781 0.00682347 7.00379e-05
0 -0.634656 -0.994716 0.275386 0.00692592 6.66678e-05
0 -0.656838 -0.994716 0.274837 0.00700541 6.23755e-05
0 -0.677993 -0.994716 0.274122 0.00706131 5.72062e-05
0 -0.698143 -0.994716 0.27323 0.00709351 5.1191e-05
0 -0.717314 -0.994716 0.272149 0.00710288 4.43759e-05
0 -0.735531 -0.994716 0.270869 0.00709049 3.67517e-05
0 -0.752825 -0.994716 0.269382 0.00705784 2.84689e-05
0 -0.769225 -0.994716 0.267686 0.00700731 1.96371e-05
0 -0.784762 -0.994716 0.265782 0.00694133 1.03537e-05
0 -0.799469 -0.994716 0.263677 0.00686246 6.18057e-07
0 -0.813378 -0.994716 0.261379 0.00677236 -9.61852e-06
0 -0.826521 -0.994716 0.258896 0.00667236 -2.03243e-05
0 -0.838932 -0.994716 0.256234 0.00656354 -3.14867e-05
0 -0.850642 -0.994716 0.253398 0.00644666 -4.31073e-05
0 -0.861683 -0.994716 0.250392 0.00632226 -5.51677e-05
0 -0.872087 -0.994716 0.24722 0.00619071 -6.769e-05
0 -0.881884 -0.994716 0.243884 0.00605201 -8.07862e-05
0 -0.891106 -0.994716 0.240386 0.00590569 -9.45918e-05
0 -0.89978 -0.994716 0.236724 0.0057509 -0.000109302
0 -0.907935 -0.994716 0.23289 0.00558617 -0.000124967
0 -0.915599 -0.994716 0.228872 0.00541007 -0.000140931
0 -0.922797 -0.994716 0.224662 0.00522286 -0.000157939
0 -0.929556 -0.994716 0.220252 0.00501983 -0.000177329
0 -0.935899 -0.994716 0.215608 0.00479205 -0.000201206
0 -0.941851 -0.994716 0.210668 0.00453308 -0.00023093
0 -0.947432 -0.994716 0.205344 0.00423581 -0.00026889
0 -0.952665 -0.994716 0.199499 0.00389083 -0.000317217
0 -0.95757 -0.994716 0.192943 0.00348965 -0.000375865
0 -0.962166 -0.994716 0.185423 0.00302656 -0.000441323
0 -0.966471 -0.994716 0.176647 0.00250367 -0.000504236
0 -0.970503 -0.994716 0.166313 0.00193333 -0.000548268
0 -0.974278 -0.994716 0.154173 0.00134558 -0.000548998
0 -0.977811 -0.994716 0.140115 0.000785685 -0.000481147
0 -0.981118 -0.994716 0.124256 0.000318455 -0.000327063
0 -0.984213 -0.994716 0.107014 6.10379e-06 -0.000106271
0 -0.987108 -0.994716 0.0890669 -0.000105321 0.000114273
0 -0.989816 -0.994716 0.0712004 -5.38226e-05 0.000214692
0 -0.992348 -0.994716 0.0539786 3.29478e-05 0.000164884
0 -0.994716 -0.994716 0.0376202 6.26098e-05 6.25951e-05
0 -0.99693 -0.994716 0.0220976 3.71488e-05 -6.74111e-07
0 -0.999 -0.994716 0.00731339 4.33884e-06 -9.1908e-06
0 -0.02 -0.992348 0.34404 0.00068101 0.000504392
0 -0.0597753 -0.992348 0.346498 0.00195409 0.000487877
0 -0.0990586 -0.992348 0.350458 0.00302246 0.0004641
0 -0.137767 -0.992348 0.354853 0.0038706 0.000443144
0 -0.175822 -0.992348 0.358987 0.00454009 0.000429081
0 -0.213152 -0.992348 0.362574 0.0050864 0.000421325
0 -0.24969 -0.992348 0.365573 0.00555252 0.000417749
0 -0.285377 -0.992348 0.368042 0.00596712 0.000416472
0 -0.32016 -0.992348 0.370062 0.0063466 0.000416335
0 -0.353993 -0.992348 0.371708 0.00670081 0.000416622
0 -0.386836 -0.992348 0.373041 0.00703414 0.000416938
0 -0.418658 -0.992348 0.374104 0.0073488 0.000416977
0 -0.449432 -0.992348 0.37493 0.00764417 0.0004166
0 -0.47914 -0.992348 0.375539 0.00791988 0.000415831
0 -0.507768 -0.992348 0.375946 0.00817485 0.000414547
0 -0.53531 -0.992348 0.376161 0.00840793 0.000412641
0 -0.561764 -0.992348 0.376203 0.00861756 0.000410145
0 -0.587133 -0.992348 0.376064 0.00880231 0.000406963
0 -0.611426 -0.992348 0.375746 0.00896078 0.00040289
0 -0.634656 -0.992348 0.375244 0.00909092 0.000397841
0 -0.656838 -0.992348 0.374546 0.0091913 0.000391876
0 -0.677993 -0.992348 0.373639 0.00926145 0.000385098
0 -0.698143 -0.992348 0.372506 0.00930141 0.000377612
0 -0.717314 -0.992348 0.371132 0.00931239 0.000369547
0 -0.735531 -0.992348 0.369505 0.00929591 0.000360868
0 -0.752825 -0.992348 0.367615 0.0092539 0.000351859
0 -0.769225 -0.992348 0.365458 0.00918924 0.000342675
0 -0.784762 -0.992348 0.363037 0.00910484 0.000333411
0 -0.799469 -0.992348 0.360357 0.00900373 0.000323956
0 -0.813378 -0.992348 0.35743 0.00888805 0.0003141
0 -0.826521 -0.992348 0.354262 0.00875955 0.000303755
0 -0.838932 -0.992348 0.350862 0.00861956 0.000292797
0 -0.850642 -0.992348 0.347233 0.00846906 0.000281087
0 -0.861683 -0.992348 0.343382 0.00830871 0.00026851
0 -0.872087 -0.992348 0.339309 0.00813892 0.000254881
0 -0.881884 -0.992348 0.335017 0.00795972 0.000239869
0 -0.891106 -0.992348 0.330505 0.00777064 0.000223092
0 -0.89978 -0.992348 0.325768 0.00757079 0.000204037
0 -0.907935 -0.992348 0.320796 0.00735835 0.000182301
0 -0.915599 -0.992348 0.315572 0.00713081 0.000158302
0 -0.922797 -0.992348 0.310079 0.00688353 0.000130477
0 -0.929556 -0.992348 0.30429 0.00661404 8.78825e-05
0 -0.935899 -0.992348 0.298157 0.00632201 3.0679e-05
0 -0.941851 -0.992348 0.291597 0.00600123 -3.87574e-05
0 -0.947432 -0.992348 0.284491 0.00564332 -0.000124261
0 -0.952665 -0.992348 0.276661 0.00523998 -0.000228981
0 -0.95757 -0.992348 0.26786 0.00478357 -0.0003529
0 -0.962166 -0.992348 0.257778 0.0042679 -0.000491029
0 -0.966471 -0.992348 0.246052 0.00369174 -0.000630126
0 -0.970503 -0.992348 0.232304 0.00305975 -0.000747267
0 -0.974278 -0.992348 0.216196 0.00238974 -0.000807723
0 -0.977811 -0.992348 0.197519 0.00171123 -0.000773301
0 -0.981118 -0.992348 0.176286 0.00107918 -0.000608729
0 -0.984213 -0.992348 0.152839 0.000562103 -0.000320278
0 -0.987108 -0.992348 0.127889 0.000250348 2.33719e-05
0 -0.989816 -0.992348 0.102485 0.000162033 0.00022058
0 -0.992348 -0.992348 0.077643 0.000181437 0.000181408
0 -0.994716 -0.992348 0.0539786 0.000164901 3.29216e-05
0 -0.99693 -0.992348 0.0316009 8.56512e-05 -5.99657e-05
0 -0.999 -0.992348 0.0104093 1.10155e-05 -4.68051e-05
0 -0.02 -0.989816 0.419141 0.000747521 0.000264427
0 -0.0597753 -0.989816 0.421921 0.00215807 0.000233304
0 -0.0990586 -0.989816 0.426399 0.00337074 0.000187264
0 -0.137767 -0.989816 0.431366 0.00436363 0.000143193
0 -0.175822 -0.989816 0.436035 0.00516977 0.000109269
0 -0.213152 -0.989816 0.440081 0.0058397 8.59369e-05
0 -0.24969 -0.989816 0.443458 0.00641544 7.0562e-05
0 -0.285377 -0.989816 0.446235 0.00692698 6.03713e-05
0 -0.32016 -0.989816 0.448504 0.00739259 5.34315e-05
0 -0.353993 -0.989816 0.45035 0.0078238 4.84353e-05
0 -0.386836 -0.989816 0.451843 0.00822621 4.45542e-05
0 -0.418658 -0.989816 0.453033 0.0086029 4.11689e-05
0 -0.449432 -0.989816 0.453956 0.0089538 3.79377e-05
0 -0.47914 -0.989816 0.454635 0.0092788 3.4763e-05
0 -0.507768 -0.989816 0.455088 0.00957683 3.14468e-05
0 -0.53531 -0.989816 0.455326 0.00984725 2.78236e-05
0 -0.561764 -0.989816 0.455367 0.0100885 2.378e-05
0 -0.587133 -0.989816 0.455205 0.0102989 1.92348e-05
0 -0.611426 -0.989816 0.454841 0.0104775 1.39037e-05
0 -0.634656 -0.989816 0.454268 0.0106224 7.6657e-06
0 -0.656838 -0.989816 0.453472 0.0107324 6.38986e-07
0 -0.677993 -0.989816 0.452437 0.0108072 -7.00189e-06
0 -0.698143 -0.989816 0.451146 0.0108472 -1.50548e-05
0 -0.717314 -0.989816 0.449581 0.0108536 -2.32537e-05
0 -0.735531 -0.989816 0.447728 0.0108285 -3.15091e-05
0 -0.752825 -0.989816 0.445577 0.0107739 -3.94717e-05
0 -0.769225 -0.989816 0.443122 0.0106929 -4.68878e-05
0 -0.784762 -0.989816 0.440367 0.0105889 -5.36114e-05
0 -0.799469 -0.989816 0.437318 0.0104648 -5.97863e-05
0 -0.813378 -0.989816 0.433985 0.0103232 -6.57195e-05
0 -0.826521 -0.989816 0.430376 0.010166 -7.15856e-05
0 -0.838932 -0.989816 0.426498 0.00999461 -7.75961e-05
0 -0.850642 -0.989816 0.422357 0.00981 -8.39872e-05
0 -0.861683 -0.989816 0.417954 0.0096128 -9.09774e-05
0 -0.872087 -0.989816 0.413292 0.00940325 -9.88674e-05
0 -0.881884 -0.989816 0.40837 0.00918121 -0.000108179
0 -0.891106 -0.989816 0.403184 0.00894599 -0.000119515
0 -0.89978 -0.989816 0.397726 0.00869643 -0.000133727
0 -0.907935 -0.989816 0.391982 0.00843031 -0.000151771
0 -0.915599 -0.989816 0.385928 0.00814423 -0.000174419
0 -0.922797 -0.989816 0.37954 0.00782958 -0.000203269
0 -0.929556 -0.989816 0.37278 0.00748657 -0.000240687
0 -0.935899 -0.989816 0.365583 0.00712048 -0.000290556
0 -0.941851 -0.989816 0.357845 0.00672401 -0.000357336
0 -0.947432 -0.989816 0.349422 0.00628733 -0.000445769
0 -0.952665 -0.989816 0.340117 0.00580286 -0.000559724
0 -0.95757 -0.989816 0.329667 0.00526439 -0.000700277
0 -0.962166 -0.989816 0.317753 0.00466786 -0.000863024
0 -0.966471 -0.989816 0.304009 0.00401474 -0.00103409
0 -0.970503 -0.989816 0.288052 0.00331256 -0.00118714
0 -0.974278 -0.989816 0.269515 0.00258172 -0.00127894
0 -0.977811 -0.989816 0.248109 0.0018512 -0.00125619
0 -0.981118 -0.989816 0.22368 0.00117309 -0.00105969
0 -0.984213 -0.989816 0.196314 0.000606885 -0.000677353
0 -0.987108 -0.989816 0.166376 0.000261218 -0.000175149
0 -0.989816 -0.989816 0.13468 0.000176057 0.000176021
0 -0.992348 -0.989816 0.102485 0.000220606 0.000161992
0 -0.994716 -0.989816 0.0712004 0.000214708 -5.3861e-05
0 -0.99693 -0.989816 0.0415773 0.000117606 -0.000183139
0 -0.999 -0.989816 0.0136522 1.66955e-05 -0.000122681
0 -0.02 -0.987108 0.478259 0.000779132 0.000243196
0 -0.0597753 -0.987108 0.481245 0.00226121 0.00020818
0 -0.0990586 -0.987108 0.486058 0.00356162 0.000157081
0 -0.137767 -0.987108 0.491403 0.00465374 0.000108777
0 -0.175822 -0.987108 0.496431 0.00556073 7.25674e-05
0 -0.213152 -0.987108 0.500789 0.00632562 4.88196e-05
0 -0.24969 -0.987108 0.504425 0.00698705 3.42977e-05
0 -0.285377 -0.987108 0.507412 0.00757454 2.56201e-05
0 -0.32016 -0.987108 0.509851 0.00810705 2.04149e-05
0 -0.353993 -0.987108 0.511834 0.0085971 1.70723e-05
0 -0.386836 -0.987108 0.513436 0.00905123 1.45676e-05
0 -0.418658 -0.987108 0.514711 0.00947311 1.21289e-05
0 -0.449432 -0.987108 0.515699 0.00986327 9.31885e-06
0 -0.47914 -0.987108 0.516424 0.0102218 6.02174e-06
0 -0.507768 -0.987108 0.516905 0.0105479 2.00815e-06
0 -0.53531 -0.987108 0.517156 0.0108412 -2.90006e-06
0 -0.561764 -0.987108 0.517193 0.0111003 -8.91219e-06
0 -0.587133 -0.987108 0.51701 0.0113235 -1.60962e-05
0 -0.611426 -0.987108 0.516607 0.0115101 -2.47992e-05
0 -0.634656 -0.987108 0.515976 0.0116586 -3.52068e-05
0 -0.656838 -0.987108 0.515102 0.011768 -4.71989e-05
0 -0.677993 -0.987108 0.513967 0.0118381 -6.0575e-05
0 -0.698143 -0.987108 0.512553 0.0118694 -7.50984e-05
0 -0.717314 -0.987108 0.51084 0.0118634 -9.04386e-05
0 -0.735531 -0.987108 0.508814 0.0118222 -0.000106481
0 -0.752825 -0.987108 0.506464 0.0117481 -0.000122774
0 -0.769225 -0.987108 0.503786 0.0116443 -0.000138978
0 -0.784762 -0.987108 0.500781 0.011514 -0.000154879
0 -0.799469 -0.987108 0.497458 0.0113604 -0.00017061
0 -0.813378 -0.987108 0.493824 0.0111859 -0.000186516
0 -0.826521 -0.987108 0.489889 0.0109926 -0.000202827
0 -0.838932 -0.987108 0.485659 0.0107816 -0.000219807
0 -0.850642 -0.987108 0.481138 0.0105537 -0.000237746
0 -0.861683 -0.987108 0.476328 0.0103093 -0.000256954
0 -0.872087 -0.987108 0.471228 0.0100481 -0.000277832
0 -0.881884 -0.987108 0.465836 0.00976954 -0.000301056
0 -0.891106 -0.987108 0.460145 0.0094723 -0.000327438
0 -0.89978 -0.987108 0.454142 0.00915453 -0.000358176
0 -0.907935 -0.987108 0.447808 0.00881336 -0.00039477
0 -0.915599 -0.987108 0.441116 0.00844504 -0.000439153
0 -0.922797 -0.987108 0.434028 0.00804311 -0.000493259
0 -0.929556 -0.987108 0.426498 0.00760502 -0.000554529
0 -0.935899 -0.987108 0.418445 0.00712852 -0.000629856
0 -0.941851 -0.987108 0.409755 0.00660536 -0.000728826
0 -0.947432 -0.987108 0.400277 0.00602674 -0.000857299
0 -0.952665 -0.987108 0.389815 0.0053862 -0.00101953
0 -0.95757 -0.987108 0.378122 0.00468164 -0.00121607
0 -0.962166 -0.987108 0.364913 0.00391801 -0.00143971
0 -0.966471 -0.987108 0.349864 0.00311155 -0.00167034
0 -0.970503 -0.987108 0.332632 0.00228967 -0.00187146
0 -0.974278 -0.987108 0.312862 0.00149544 -0.00198648
0 -0.977811 -0.987108 0.290209 0.000775519 -0.00194591
0 -0.981118 -0.987108 0.264357 0.000195475 -0.0016691
0 -0.984213 -0.987108 0.235107 -0.000212542 -0.00111124
0 -0.987108 -0.987108 0.202397 -0.000315321 -0.000315346
0 -0.989816 -0.987108 0.166376 -0.000175125 0.000261177
0 -0.992348 -0.987108 0.127889 2.3391e-05 0.000250298
0 -0.994716 -0.987108 0.089067 0.000114285 -0.00010537
0 -0.99693 -0.987108 0.0519422 9.03104e-05 -0.000311311
0 -0.999 -0.987108 0.0170193 1.57253e-05 -0.000211481
0 -0.02 -0.984213 0.525733 0.000791428 0.000444415
0 -0.0597753 -0.984213 0.528847 0.00230703 0.000400308
0 -0.0990586 -0.984213 0.533877 0.00365933 0.000334838
0 -0.137767 -0.984213 0.539479 0.00481866 0.000271432
0 -0.175822 -0.984213 0.544761 0.00579923 0.000222191
0 -0.213152 -0.984213 0.549347 0.00663621 0.000188337
0 -0.24969 -0.984213 0.553176 0.00736397 0.000166348
0 -0.285377 -0.984213 0.556322 0.00801053 0.000152205
0 -0.32016 -0.984213 0.55889 0.00859475 0.000142925
0 -0.353993 -0.984213 0.560977 0.00912959 0.000136401
0 -0.386836 -0.984213 0.562662 0.00962216 0.000131237
0 -0.418658 -0.984213 0.564002 0.0100766 0.000126374
0 -0.449432 -0.984213 0.565038 0.0104938 0.000121187
0 -0.47914 -0.984213 0.565796 0.0108742 0.000115448
0 -0.507768 -0.984213 0.566296 0.0112171 0.000108891
0 -0.53531 -0.984213 0.566555 0.0115226 0.000101251
0 -0.561764 -0.984213 0.566583 0.0117893 9.21907e-05
0 -0.587133 -0.984213 0.566378 0.0120155 8.16482e-05
0 -0.611426 -0.984213 0.565938 0.0122009 6.92256e-05
0 -0.634656 -0.984213 0.565254 0.012344 5.46616e-05
0 -0.656838 -0.984213 0.56431 0.0124442 3.81187e-05
0 -0.677993 -0.984213 0.563086 0.0125014 1.98346e-05
0 -0.698143 -0.984213 0.561563 0.0125161 1.09002e-07
0 -0.717314 -0.984213 0.559723 0.0124899 -2.06241e-05
0 -0.735531 -0.984213 0.557549 0.012425 -4.22103e-05
0 -0.752825 -0.984213 0.555032 0.0123237 -6.41023e-05
0 -0.769225 -0.984213 0.552167 0.0121893 -8.58964e-05
0 -0.784762 -0.984213 0.548955 0.0120249 -0.000107367
0 -0.799469 -0.984213 0.545406 0.0118334 -0.0001287
0 -0.813378 -0.984213 0.541526 0.0116174 -0.000150374
0 -0.826521 -0.984213 0.537325 0.0113785 -0.000172774
0 -0.838932 -0.984213 0.532808 0.0111176 -0.000196336
0 -0.850642 -0.984213 0.527978 0.010835 -0.000221521
0 -0.861683 -0.984213 0.522835 0.0105307 -0.000248875
0 -0.872087 -0.984213 0.517379 0.0102036 -0.000279058
0 -0.881884 -0.984213 0.511602 0.00985258 -0.000313068
0 -0.891106 -0.984213 0.505496 0.00947529 -0.000352151
0 -0.89978 -0.984213 0.499044 0.0090689 -0.000398023
0 -0.907935 -0.984213 0.492221 0.00862965 -0.000452866
0 -0.915599 -0.984213 0.484995 0.00815295 -0.000519454
0 -0.922797 -0.984213 0.47732 0.0076338 -0.000600515
0 -0.929556 -0.984213 0.469136 0.00706564 -0.000700233
0 -0.935899 -0.984213 0.460357 0.00644024 -0.000825116
0 -0.941851 -0.984213 0.450872 0.00575115 -0.000982713
0 -0.947432 -0.984213 0.440537 0.00499485 -0.00117888
0 -0.952665 -0.984213 0.429173 0.00417287 -0.00141586
0 -0.95757 -0.984213 0.41657 0.00329583 -0.00168908
0 -0.962166 -0.984213 0.402487 0.00238604 -0.00198245
0 -0.966471 -0.984213 0.386656 0.00147944 -0.00226403
0 -0.970503 -0.984213 0.368777 0.000621844 -0.00248317
0 -0.974278 -0.984213 0.348512 -0.000129995 -0.00257038
0 -0.977811 -0.984213 0.325474 -0.00072802 -0.00244493
0 -0.981118 -0.984213 0.29921 -0.0011015 -0.00202352
0 -0.984213 -0.984213 0.269237 -0.00127567 -0.00127568
0 -0.987108 -0.984213 0.235107 -0.00111124 -0.000212566
0 -0.989816 -0.984213 0.196314 -0.000677345 0.000606842
0 -0.992348 -0.984213 0.152839 -0.00032027 0.000562049
0 -0.994716 -0.984213 0.107014 -0.000106265 6.04834e-06
0 -0.99693 -0.984213 0.0624198 7.77882e-06 -0.000337972
0 -0.999 -0.984213 0.0204274 8.64686e-06 -0.000260026
0 -0.02 -0.981118 0.564821 0.000793608 0.000559714
0 -0.0597753 -0.981118 0.568011 0.00232157 0.000508582
0 -0.0990586 -0.981118 0.573181 0.0037032 0.00043179
0 -0.137767 -0.981118 0.578963 0.00490724 0.000356168
0 -0.175822 -0.981118 0.584435 0.00594066 0.000296118
0 -0.213152 -0.981118 0.589201 0.00683164 0.000253716
0 -0.24969 -0.981118 0.593187 0.00761016 0.000225342
0 -0.285377 -0.981118 0.596465 0.00830224 0.0002065
0 -0.32016 -0.981118 0.599142 0.00892609 0.000193695
0 -0.353993 -0.981118 0.601317 0.00949471 0.000184382
0 -0.386836 -0.981118 0.603072 0.0100154 0.000176805
0 -0.418658 -0.981118 0.604466 0.0104926 0.000169633
0 -0.449432 -0.981118 0.605542 0.0109277 0.000162045
0 -0.47914 -0.981118 0.606327 0.011321 0.000153709
0 -0.507768 -0.981118 0.606841 0.0116722 0.000144318
0 -0.53531 -0.981118 0.607103 0.0119817 0.000133527
0 -0.561764 -0.981118 0.607119 0.0122479 0.000120832
0 -0.587133 -0.981118 0.60689 0.0124694 0.000106196
0 -0.611426 -0.981118 0.606412 0.0126459 8.91707e-05
0 -0.634656 -0.981118 0.605675 0.0127764 6.94045e-05
0 -0.656838 -0.981118 0.604662 0.01286 4.70817e-05
0 -0.677993 -0.981118 0.603352 0.012897 2.24564e-05
0 -0.698143 -0.981118 0.601726 0.0128879 -4.124e-06
0 -0.717314 -0.981118 0.599765 0.0128341 -3.21341e-05
0 -0.735531 -0.981118 0.597454 0.0127379 -6.13797e-05
0 -0.752825 -0.981118 0.594783 0.0126017 -9.12379e-05
0 -0.769225 -0.981118 0.591748 0.0124286 -0.00012125
0 -0.784762 -0.981118 0.588351 0.0122215 -0.000151194
0 -0.799469 -0.981118 0.584599 0.0119834 -0.000181329
0 -0.813378 -0.981118 0.5805 0.0117162 -0.000212282
0 -0.826521 -0.981118 0.576063 0.0114214 -0.000244635
0 -0.838932 -0.981118 0.571291 0.0110994 -0.000279049
0 -0.850642 -0.981118 0.566187 0.0107501 -0.00031623
0 -0.861683 -0.981118 0.56075 0.0103725 -0.000357032
0 -0.872087 -0.981118 0.554977 0.0099652 -0.000402478
0 -0.881884 -0.981118 0.548859 0.00952584 -0.000454018
0 -0.891106 -0.981118 0.542385 0.00905139 -0.000513476
0 -0.89978 -0.981118 0.535533 0.00853803 -0.000583234
0 -0.907935 -0.981118 0.528275 0.00798128 -0.000666283
0 -0.915599 -0.981118 0.520575 0.007376 -0.000766225
0 -0.922797 -0.981118 0.512382 0.00671703 -0.000886762
0 -0.929556 -0.981118 0.503631 0.00599824 -0.00103122
0 -0.935899 -0.981118 0.49424 0.00521437 -0.00120722
0 -0.941851 -0.981118 0.484102 0.00436544 -0.00142245
0 -0.947432 -0.981118 0.473092 0.00345822 -0.00168007
0 -0.952665 -0.981118 0.461058 0.00250835 -0.0019767
0 -0.95757 -0.981118 0.447826 0.00154271 -0.00229903
0 -0.962166 -0.981118 0.433199 0.000599192 -0.0026197
0 -0.966471 -0.981118 0.416954 -0.00027506 -0.00289474
0 -0.970503 -0.981118 0.398823 -0.00103029 -0.00306219
0 -0.974278 -0.981118 0.378477 -0.00161453 -0.00304447
0 -0.977811 -0.981118 0.355493 -0.00199252 -0.00275518
0 -0.981118 -0.981118 0.329309 -0.00211688 -0.00211685
0 -0.984213 -0.981118 0.29921 -0.00202354 -0.0011015
0 -0.987108 -0.981118 0.264357 -0.00166912 0.000195455
0 -0.989816 -0.981118 0.223681 -0.00105969 0.00117305
0 -0.992348 -0.981118 0.176286 -0.000608733 0.00107913
0 -0.994716 -0.981118 0.124257 -0.000327064 0.000318399
0 -0.99693 -0.981118 0.0725743 -8.49624e-05 -0.000207852
0 -0.999 -0.981118 0.0237391 1.27157e-06 -0.000237001
0 -0.02 -0.977811 0.597874 0.000790723 0.000697718
0 -0.0597753 -0.977811 0.601102 0.00231945 0.000639569
0 -0.0990586 -0.977811 0.606358 0.00371605 0.0005513
0 -0.137767 -0.977811 0.612267 0.00494876 0.000462895
0 -0.175822 -0.977811 0.617888 0.0060192 0.000391095
0 -0.213152 -0.977811 0.622803 0.00694976 0.000339012
0 -0.24969 -0.977811 0.626926 0.00776643 0.000303095
0 -0.285377 -0.977811 0.630322 0.00849301 0.000278461
0 -0.32016 -0.977811 0.633097 0.00914676 0.000261137
0 -0.353993 -0.977811 0.635352 0.00974031 0.000248135
0 -0.386836 -0.977811 0.637171 0.010281 0.000237313
0 -0.418658 -0.977811 0.638615 0.0107733 0.00022705
0 -0.449432 -0.977811 0.639726 0.0112188 0.000216312
0 -0.47914 -0.977811 0.640533 0.0116179 0.000204635
0 -0.507768 -0.977811 0.641059 0.0119706 0.00019168
0 -0.53531 -0.977811 0.64132 0.0122772 0.000176985
0 -0.561764 -0.977811 0.641323 0.0125364 0.000159873
0 -0.587133 -0.977811 0.641067 0.0127468 0.000140327
0 -0.611426 -0.977811 0.640548 0.0129082 0.000117848
0 -0.634656 -0.977811 0.639755 0.0130194 9.19852e-05
0 -0.656838 -0.977811 0.63867 0.01308 6.29339e-05
0 -0.677993 -0.977811 0.637274 0.0130901 3.09636e-05
0 -0.698143 -0.977811 0.635544 0.0130503 -3.54108e-06
0 -0.717314 -0.977811 0.633465 0.0129619 -3.99687e-05
0 -0.735531 -0.977811 0.631021 0.012827 -7.80781e-05
0 -0.752825 -0.977811 0.628202 0.0126483 -0.000117182
0 -0.769225 -0.977811 0.625004 0.0124285 -0.000156798
0 -0.784762 -0.977811 0.62143 0.0121705 -0.000196735
0 -0.799469 -0.977811 0.617487 0.0118767 -0.000237378
0 -0.813378 -0.977811 0.613182 0.011549 -0.000279546
0 -0.826521 -0.977811 0.608522 0.0111884 -0.000324094
0 -0.838932 -0.977811 0.603511 0.0107947 -0.000371994
0 -0.850642 -0.977811 0.59815 0.0103673 -0.000424275
0 -0.861683 -0.977811 0.592438 0.00990477 -0.000482217
0 -0.872087 -0.977811 0.586368 0.00940487 -0.000547331
0 -0.881884 -0.977811 0.579932 0.00886477 -0.00062164
0 -0.891106 -0.977811 0.573112 0.00828104 -0.000707643
0 -0.89978 -0.977811 0.565888 0.00764971 -0.000808468
0 -0.907935 -0.977811 0.558228 0.00696674 -0.000927892
0 -0.915599 -0.977811 0.550094 0.00622833 -0.00107024
0 -0.922797 -0.977811 0.541434 0.0054319 -0.00123994
0 -0.929556 -0.977811 0.532187 0.00457601 -0.00144126
0 -0.935899 -0.977811 0.522274 0.00366302 -0.00167983
0 -0.941851 -0.977811 0.511605 0.00270328 -0.00195891
0 -0.947432 -0.977811 0.500071 0.001716 -0.00227549
0 -0.952665 -0.977811 0.48755 0.000729695 -0.00261766
0 -0.95757 -0.977811 0.4739 -0.000218069 -0.00296167
0 -0.962166 -0.977811 0.458961 -0.00108368 -0.00326952
0 -0.966471 -0.977811 0.442538 -0.00182074 -0.00348789
0 -0.970503 -0.977811 0.424384 -0.00238698 -0.00354851
0 -0.974278 -0.977811 0.404167 -0.00274418 -0.00337184
0 -0.977811 -0.977811 0.381423 -0.00287439 -0.00287434
0 -0.981118 -0.977811 0.355493 -0.00275523 -0.00199249
0 -0.984213 -0.977811 0.325474 -0.00244497 -0.00072801
0 -0.987108 -0.977811 0.290209 -0.00194594 0.000775507
0 -0.989816 -0.977811 0.248109 -0.00125621 0.00185117
0 -0.992348 -0.977811 0.19752 -0.000773315 0.00171119
0 -0.994716 -0.977811 0.140116 -0.000481153 0.000785635
0 -0.99693 -0.977811 0.0819843 -0.000159193 6.55707e-05
0 -0.999 -0.977811 0.0268161 -3.97865e-06 -0.000144347
0 -0.02 -0.974278 0.626539 0.000785317 0.000837597
0 -0.0597753 -0.974278 0.629778 0.00230831 0.000772825
0 -0.0990586 -0.974278 0.635077 0.00371045 0.000673494
0 -0.137767 -0.974278 0.641072 0.00496018 0.000572471
0 -0.175822 -0.974278 0.646811 0.00605536 0.000488749
0 -0.213152 -0.974278 0.651853 0.00701389 0.000426557
0 -0.24969 -0.974278 0.656099 0.0078583 0.000382525
0 -0.285377 -0.974278 0.659604 0.00861024 0.000351477
0 -0.32016 -0.974278 0.662471 0.00928579 0.000328999
0 -0.353993 -0.974278 0.664803 0.00989695 0.000311669
0 -0.386836 -0.974278 0.666682 0.0104509 0.000296958
0 -0.418658 -0.974278 0.668172 0.0109519 0.000282943
0 -0.449432 -0.974278 0.669316 0.0114016 0.000268363
0 -0.47914 -0.974278 0.670144 0.0118006 0.000252616
0 -0.507768 -0.974278 0.670678 0.0121489 0.000235329
0 -0.53531 -0.974278 0.670936 0.0124471 0.000215892
0 -0.561764 -0.974278 0.670922 0.0126936 0.000193442