# V  FACE_DATA 3600
# x y z  V
0 -0.02 -0.999 1.2e-05
0 -0.0597753 -0.999 1.18652e-05
0 -0.0990586 -0.999 1.17048e-05
0 -0.137767 -0.999 1.15201e-05
0 -0.175822 -0.999 1.13129e-05
0 -0.213152 -0.999 1.10849e-05
0 -0.24969 -0.999 1.0838e-05
0 -0.285377 -0.999 1.05742e-05
0 -0.32016 -0.999 1.02956e-05
0 -0.353993 -0.999 1.00041e-05
0 -0.386836 -0.999 9.70193e-06
0 -0.418658 -0.999 9.39106e-06
0 -0.449432 -0.999 9.07348e-06
0 -0.47914 -0.999 8.75113e-06
0 -0.507768 -0.999 8.4258e-06
0 -0.53531 -0.999 8.09923e-06
0 -0.561764 -0.999 7.77301e-06
0 -0.587133 -0.999 7.44861e-06
0 -0.611426 -0.999 7.12736e-06
0 -0.634656 -0.999 6.81048e-06
0 -0.656838 -0.999 6.49903e-06
0 -0.677993 -0.999 6.19396e-06
0 -0.698143 -0.999 5.89606e-06
0 -0.717314 -0.999 5.60603e-06
0 -0.735531 -0.999 5.32443e-06
0 -0.752825 -0.999 5.05172e-06
0 -0.769225 -0.999 4.78824e-06
0 -0.784762 -0.999 4.53426e-06
0 -0.799469 -0.999 4.28995e-06
0 -0.813378 -0.999 4.05541e-06
0 -0.826521 -0.999 3.83064e-06
0 -0.838932 -0.999 3.61563e-06
0 -0.850642 -0.999 3.41028e-06
0 -0.861683 -0.999 3.21444e-06
0 -0.872087 -0.999 3.02795e-06
0 -0.881884 -0.999 2.85059e-06
0 -0.891106 -0.999 2.68212e-06
0 -0.89978 -0.999 2.52229e-06
0 -0.907935 -0.999 2.37081e-06
0 -0.915599 -0.999 2.2274e-06
0 -0.922797 -0.999 2.09175e-06
0 -0.929556 -0.999 1.96356e-06
0 -0.935899 -0.999 1.84252e-06
0 -0.941851 -0.999 1.72831e-06
0 -0.947432 -0.999 1.62064e-06
0 -0.952665 -0.999 1.5192e-06
0 -0.95757 -0.999 1.42368e-06
0 -0.962166 -0.999 1.33379e-06
0 -0.966471 -0.999 1.24926e-06
0 -0.970503 -0.999 1.1698e-06
0 -0.974278 -0.999 1.09514e-06
0 -0.977811 -0.999 1.02502e-06
0 -0.981118 -0.999 9.59206e-07
0 -0.984213 -0.999 8.97447e-07
0 -0.987108 -0.999 8.39517e-07
0 -0.989816 -0.999 7.85197e-07
0 -0.992348 -0.999 7.34279e-07
0 -0.994716 -0.999 6.86565e-07
0 -0.99693 -0.999 6.41865e-07
0 -0.999 -0.999 6e-07
0 -0.02 -0.99693 1.28373e-05
0 -0.0597753 -0.99693 1.26931e-05
0 -0.0990586 -0.99693 1.25215e-05
0 -0.137767 -0.99693 1.23239e-05
0 -0.175822 -0.99693 1.21023e-05
0 -0.213152 -0.99693 1.18584e-05
0 -0.24969 -0.99693 1.15943e-05
0 -0.285377 -0.99693 1.13121e-05
0 -0.32016 -0.99693 1.10139e-05
0 -0.353993 -0.99693 1.07022e-05
0 -0.386836 -0.99693 1.03789e-05
0 -0.418658 -0.99693 1.00463e-05
0 -0.449432 -0.99693 9.70659e-06
0 -0.47914 -0.99693 9.36174e-06
0 -0.507768 -0.99693 9.01372e-06
0 -0.53531 -0.99693 8.66436e-06
0 -0.561764 -0.99693 8.31537e-06
0 -0.587133 -0.99693 7.96833e-06
0 -0.611426 -0.99693 7.62467e-06
0 -0.634656 -0.99693 7.28568e-06
0 -0.656838 -0.99693 6.9525e-06
0 -0.677993 -0.99693 6.62614e-06
0 -0.698143 -0.99693 6.30746e-06
0 -0.717314 -0.99693 5.99719e-06
0 -0.735531 -0.99693 5.69594e-06
0 -0.752825 -0.99693 5.4042e-06
0 -0.769225 -0.99693 5.12234e-06
0 -0.784762 -0.99693 4.85064e-06
0 -0.799469 -0.99693 4.58929e-06
0 -0.813378 -0.99693 4.33837e-06
0 -0.826521 -0.99693 4.09793e-06
0 -0.838932 -0.99693 3.86791e-06
0 -0.850642 -0.99693 3.64823e-06
0 -0.861683 -0.99693 3.43873e-06
0 -0.872087 -0.99693 3.23922e-06
0 -0.881884 -0.99693 3.04949e-06
0 -0.891106 -0.99693 2.86927e-06
0 -0.89978 -0.99693 2.69828e-06
0 -0.907935 -0.99693 2.53624e-06
0 -0.915599 -0.99693 2.38282e-06
0 -0.922797 -0.99693 2.2377e-06
0 -0.929556 -0.99693 2.10057e-06
0 -0.935899 -0.99693 1.97108e-06
0 -0.941851 -0.99693 1.84891e-06
0 -0.947432 -0.99693 1.73372e-06
0 -0.952665 -0.99693 1.6252e-06
0 -0.95757 -0.99693 1.52301e-06
0 -0.962166 -0.99693 1.42686e-06
0 -0.966471 -0.99693 1.33643e-06
0 -0.970503 -0.99693 1.25142e-06
0 -0.974278 -0.99693 1.17155e-06
0 -0.977811 -0.99693 1.09654e-06
0 -0.981118 -0.99693 1.02613e-06
0 -0.984213 -0.99693 9.60066e-07
0 -0.987108 -0.99693 8.98094e-07
0 -0.989816 -0.99693 8.39984e-07
0 -0.992348 -0.99693 7.85514e-07
0 -0.994716 -0.99693 7.3447e-07
0 -0.99693 -0.99693 6.86651e-07
0 -0.999 -0.99693 6.41865e-07
0 -0.02 -0.994716 1.37313e-05
0 -0.0597753 -0.994716 1.35771e-05
0 -0.0990586 -0.994716 1.33935e-05
0 -0.137767 -0.994716 1.31822e-05
0 -0.175822 -0.994716 1.29451e-05
0 -0.213152 -0.994716 1.26842e-05
0 -0.24969 -0.994716 1.24017e-05
0 -0.285377 -0.994716 1.20998e-05
0 -0.32016 -0.994716 1.1781e-05
0 -0.353993 -0.994716 1.14475e-05
0 -0.386836 -0.994716 1.11017e-05
0 -0.418658 -0.994716 1.0746e-05
0 -0.449432 -0.994716 1.03826e-05
0 -0.47914 -0.994716 1.00137e-05
0 -0.507768 -0.994716 9.64144e-06
0 -0.53531 -0.994716 9.26775e-06
0 -0.561764 -0.994716 8.89446e-06
0 -0.587133 -0.994716 8.52325e-06
0 -0.611426 -0.994716 8.15566e-06
0 -0.634656 -0.994716 7.79306e-06
0 -0.656838 -0.994716 7.43668e-06
0 -0.677993 -0.994716 7.08759e-06
0 -0.698143 -0.994716 6.74672e-06
0 -0.717314 -0.994716 6.41484e-06
0 -0.735531 -0.994716 6.09261e-06
0 -0.752825 -0.994716 5.78055e-06
0 -0.769225 -0.994716 5.47907e-06
0 -0.784762 -0.994716 5.18845e-06
0 -0.799469 -0.994716 4.90889e-06
0 -0.813378 -0.994716 4.6405e-06
0 -0.826521 -0.994716 4.38331e-06
0 -0.838932 -0.994716 4.13728e-06
0 -0.850642 -0.994716 3.90229e-06
0 -0.861683 -0.994716 3.6782e-06
0 -0.872087 -0.994716 3.46481e-06
0 -0.881884 -0.994716 3.26186e-06
0 -0.891106 -0.994716 3.06909e-06
0 -0.89978 -0.994716 2.88619e-06
0 -0.907935 -0.994716 2.71286e-06
0 -0.915599 -0.994716 2.54876e-06
0 -0.922797 -0.994716 2.39354e-06
0 -0.929556 -0.994716 2.24685e-06
0 -0.935899 -0.994716 2.10835e-06
0 -0.941851 -0.994716 1.97767e-06
0 -0.947432 -0.994716 1.85446e-06
0 -0.952665 -0.994716 1.73838e-06
0 -0.95757 -0.994716 1.62908e-06
0 -0.962166 -0.994716 1.52623e-06
0 -0.966471 -0.994716 1.4295e-06
0 -0.970503 -0.994716 1.33857e-06
0 -0.974278 -0.994716 1.25314e-06
0 -0.977811 -0.994716 1.17291e-06
0 -0.981118 -0.994716 1.0976e-06
0 -0.984213 -0.994716 1.02693e-06
0 -0.987108 -0.994716 9.60638e-07
0 -0.989816 -0.994716 8.98481e-07
0 -0.992348 -0.994716 8.40217e-07
0 -0.994716 -0.994716 7.85619e-07
0 -0.99693 -0.994716 7.3447e-07
0 -0.999 -0.994716 6.86565e-07
0 -0.02 -0.992348 1.46856e-05
0 -0.0597753 -0.992348 1.45206e-05
0 -0.0990586 -0.992348 1.43243e-05
0 -0.137767 -0.992348 1.40983e-05
0 -0.175822 -0.992348 1.38447e-05
0 -0.213152 -0.992348 1.35657e-05
0 -0.24969 -0.992348 1.32636e-05
0 -0.285377 -0.992348 1.29407e-05
0 -0.32016 -0.992348 1.25997e-05
0 -0.353993 -0.992348 1.2243e-05
0 -0.386836 -0.992348 1.18732e-05
0 -0.418658 -0.992348 1.14928e-05
0 -0.449432 -0.992348 1.11041e-05
0 -0.47914 -0.992348 1.07096e-05
0 -0.507768 -0.992348 1.03115e-05
0 -0.53531 -0.992348 9.91183e-06
0 -0.561764 -0.992348 9.5126e-06
0 -0.587133 -0.992348 9.1156e-06
0 -0.611426 -0.992348 8.72246e-06
0 -0.634656 -0.992348 8.33466e-06
0 -0.656838 -0.992348 7.95351e-06
0 -0.677993 -0.992348 7.58016e-06
0 -0.698143 -0.992348 7.21559e-06
0 -0.717314 -0.992348 6.86066e-06
0 -0.735531 -0.992348 6.51603e-06
0 -0.752825 -0.992348 6.18229e-06
0 -0.769225 -0.992348 5.85985e-06
0 -0.784762 -0.992348 5.54903e-06
0 -0.799469 -0.992348 5.25004e-06
0 -0.813378 -0.992348 4.963e-06
0 -0.826521 -0.992348 4.68794e-06
0 -0.838932 -0.992348 4.42481e-06
0 -0.850642 -0.992348 4.17349e-06
0 -0.861683 -0.992348 3.93383e-06
0 -0.872087 -0.992348 3.7056e-06
0 -0.881884 -0.992348 3.48855e-06
0 -0.891106 -0.992348 3.28238e-06
0 -0.89978 -0.992348 3.08677e-06
0 -0.907935 -0.992348 2.9014e-06
0 -0.915599 -0.992348 2.72589e-06
0 -0.922797 -0.992348 2.55988e-06
0 -0.929556 -0.992348 2.403e-06
0 -0.935899 -0.992348 2.25487e-06
0 -0.941851 -0.992348 2.11511e-06
0 -0.947432 -0.992348 1.98334e-06
0 -0.952665 -0.992348 1.85919e-06
0 -0.95757 -0.992348 1.7423e-06
0 -0.962166 -0.992348 1.6323e-06
0 -0.966471 -0.992348 1.52884e-06
0 -0.970503 -0.992348 1.43159e-06
0 -0.974278 -0.992348 1.34023e-06
0 -0.977811 -0.992348 1.25442e-06
0 -0.981118 -0.992348 1.17388e-06
0 -0.984213 -0.992348 1.09829e-06
0 -0.987108 -0.992348 1.0274e-06
0 -0.989816 -0.992348 9.60923e-07
0 -0.992348 -0.992348 8.9861e-07
0 -0.994716 -0.992348 8.40217e-07
0 -0.99693 -0.992348 7.85514e-07
0 -0.999 -0.992348 7.34279e-07
0 -0.02 -0.989816 1.57039e-05
0 -0.0597753 -0.989816 1.55275e-05
0 -0.0990586 -0.989816 1.53176e-05
0 -0.137767 -0.989816 1.5076e-05
0 -0.175822 -0.989816 1.48048e-05
0 -0.213152 -0.989816 1.45064e-05
0 -0.24969 -0.989816 1.41833e-05
0 -0.285377 -0.989816 1.38381e-05
0 -0.32016 -0.989816 1.34734e-05
0 -0.353993 -0.989816 1.3092e-05
0 -0.386836 -0.989816 1.26965e-05
0 -0.418658 -0.989816 1.22897e-05
0 -0.449432 -0.989816 1.18741e-05
0 -0.47914 -0.989816 1.14523e-05
0 -0.507768 -0.989816 1.10265e-05
0 -0.53531 -0.989816 1.05992e-05
0 -0.561764 -0.989816 1.01722e-05
0 -0.587133 -0.989816 9.74771e-06
0 -0.611426 -0.989816 9.3273e-06
0 -0.634656 -0.989816 8.91261e-06
0 -0.656838 -0.989816 8.50503e-06
0 -0.677993 -0.989816 8.10579e-06
0 -0.698143 -0.989816 7.71595e-06
0 -0.717314 -0.989816 7.3364e-06
0 -0.735531 -0.989816 6.96788e-06
0 -0.752825 -0.989816 6.61099e-06
0 -0.769225 -0.989816 6.26619e-06
0 -0.784762 -0.989816 5.93382e-06
0 -0.799469 -0.989816 5.6141e-06
0 -0.813378 -0.989816 5.30716e-06
0 -0.826521 -0.989816 5.01302e-06
0 -0.838932 -0.989816 4.73164e-06
0 -0.850642 -0.989816 4.4629e-06
0 -0.861683 -0.989816 4.20662e-06
0 -0.872087 -0.989816 3.96256e-06
0 -0.881884 -0.989816 3.73046e-06
0 -0.891106 -0.989816 3.50999e-06
0 -0.89978 -0.989816 3.30082e-06
0 -0.907935 -0.989816 3.10259e-06
0 -0.915599 -0.989816 2.91491e-06
0 -0.922797 -0.989816 2.73739e-06
0 -0.929556 -0.989816 2.56964e-06
0 -0.935899 -0.989816 2.41123e-06
0 -0.941851 -0.989816 2.26178e-06
0 -0.947432 -0.989816 2.12087e-06
0 -0.952665 -0.989816 1.98811e-06
0 -0.95757 -0.989816 1.86311e-06
0 -0.962166 -0.989816 1.74548e-06
0 -0.966471 -0.989816 1.63486e-06
0 -0.970503 -0.989816 1.53087e-06
0 -0.974278 -0.989816 1.43316e-06
0 -0.977811 -0.989816 1.34141e-06
0 -0.981118 -0.989816 1.25528e-06
0 -0.984213 -0.989816 1.17445e-06
0 -0.987108 -0.989816 1.09864e-06
0 -0.989816 -0.989816 1.02756e-06
0 -0.992348 -0.989816 9.60923e-07
0 -0.994716 -0.989816 8.98481e-07
0 -0.99693 -0.989816 8.39984e-07
0 -0.999 -0.989816 7.85197e-07
0 -0.02 -0.987108 1.67903e-05
0 -0.0597753 -0.987108 1.66017e-05
0 -0.0990586 -0.987108 1.63772e-05
0 -0.137767 -0.987108 1.61189e-05
0 -0.175822 -0.987108 1.5829e-05
0 -0.213152 -0.987108 1.551e-05
0 -0.24969 -0.987108 1.51645e-05
0 -0.285377 -0.987108 1.47954e-05
0 -0.32016 -0.987108 1.44055e-05
0 -0.353993 -0.987108 1.39977e-05
0 -0.386836 -0.987108 1.35749e-05
0 -0.418658 -0.987108 1.31399e-05
0 -0.449432 -0.987108 1.26956e-05
0 -0.47914 -0.987108 1.22445e-05
0 -0.507768 -0.987108 1.17893e-05
0 -0.53531 -0.987108 1.13324e-05
0 -0.561764 -0.987108 1.0876e-05
0 -0.587133 -0.987108 1.0422e-05
0 -0.611426 -0.987108 9.97256e-06
0 -0.634656 -0.987108 9.52918e-06
0 -0.656838 -0.987108 9.09341e-06
0 -0.677993 -0.987108 8.66655e-06
0 -0.698143 -0.987108 8.24974e-06
0 -0.717314 -0.987108 7.84393e-06
0 -0.735531 -0.987108 7.44991e-06
0 -0.752825 -0.987108 7.06834e-06
0 -0.769225 -0.987108 6.69968e-06
0 -0.784762 -0.987108 6.34432e-06
0 -0.799469 -0.987108 6.00248e-06
0 -0.813378 -0.987108 5.6743e-06
0 -0.826521 -0.987108 5.35982e-06
0 -0.838932 -0.987108 5.05897e-06
0 -0.850642 -0.987108 4.77164e-06
0 -0.861683 -0.987108 4.49763e-06
0 -0.872087 -0.987108 4.23669e-06
0 -0.881884 -0.987108 3.98853e-06
0 -0.891106 -0.987108 3.75281e-06
0 -0.89978 -0.987108 3.52917e-06
0 -0.907935 -0.987108 3.31723e-06
0 -0.915599 -0.987108 3.11656e-06
0 -0.922797 -0.987108 2.92676e-06
0 -0.929556 -0.987108 2.7474e-06
0 -0.935899 -0.987108 2.57804e-06
0 -0.941851 -0.987108 2.41825e-06
0 -0.947432 -0.987108 2.26759e-06
0 -0.952665 -0.987108 2.12565e-06
0 -0.95757 -0.987108 1.992e-06
0 -0.962166 -0.987108 1.86624e-06
0 -0.966471 -0.987108 1.74796e-06
0 -0.970503 -0.987108 1.63677e-06
0 -0.974278 -0.987108 1.53231e-06
0 -0.977811 -0.987108 1.43421e-06
0 -0.981118 -0.987108 1.34212e-06
0 -0.984213 -0.987108 1.2557e-06
0 -0.987108 -0.987108 1.17465e-06
0 -0.989816 -0.987108 1.09864e-06
0 -0.992348 -0.987108 1.0274e-06
0 -0.994716 -0.987108 9.60638e-07
0 -0.99693 -0.987108 8.98094e-07
0 -0.999 -0.987108 8.39517e-07
0 -0.02 -0.984213 1.79489e-05
0 -0.0597753 -0.984213 1.77473e-05
0 -0.0990586 -0.984213 1.75073e-05
0 -0.137767 -0.984213 1.72312e-05
0 -0.175822 -0.984213 1.69212e-05
0 -0.213152 -0.984213 1.65802e-05
0 -0.24969 -0.984213 1.62109e-05
0 -0.285377 -0.984213 1.58164e-05
0 -0.32016 -0.984213 1.53995e-05
0 -0.353993 -0.984213 1.49636e-05
0 -0.386836 -0.984213 1.45116e-05
0 -0.418658 -0.984213 1.40466e-05
0 -0.449432 -0.984213 1.35716e-05
0 -0.47914 -0.984213 1.30894e-05
0 -0.507768 -0.984213 1.26029e-05
0 -0.53531 -0.984213 1.21144e-05
0 -0.561764 -0.984213 1.16264e-05
0 -0.587133 -0.984213 1.11412e-05
0 -0.611426 -0.984213 1.06607e-05
0 -0.634656 -0.984213 1.01867e-05
0 -0.656838 -0.984213 9.72089e-06
0 -0.677993 -0.984213 9.26458e-06
0 -0.698143 -0.984213 8.819e-06
0 -0.717314 -0.984213 8.38519e-06
0 -0.735531 -0.984213 7.96399e-06
0 -0.752825 -0.984213 7.55608e-06
0 -0.769225 -0.984213 7.16199e-06
0 -0.784762 -0.984213 6.7821e-06
0 -0.799469 -0.984213 6.41668e-06
0 -0.813378 -0.984213 6.06585e-06
0 -0.826521 -0.984213 5.72967e-06
0 -0.838932 -0.984213 5.40806e-06
0 -0.850642 -0.984213 5.1009e-06
0 -0.861683 -0.984213 4.80798e-06
0 -0.872087 -0.984213 4.52904e-06
0 -0.881884 -0.984213 4.26375e-06
0 -0.891106 -0.984213 4.01177e-06
0 -0.89978 -0.984213 3.7727e-06
0 -0.907935 -0.984213 3.54613e-06
0 -0.915599 -0.984213 3.33162e-06
0 -0.922797 -0.984213 3.12872e-06
0 -0.929556 -0.984213 2.93698e-06
0 -0.935899 -0.984213 2.75594e-06
0 -0.941851 -0.984213 2.58512e-06
0 -0.947432 -0.984213 2.42407e-06
0 -0.952665 -0.984213 2.27233e-06
0 -0.95757 -0.984213 2.12946e-06
0 -0.962166 -0.984213 1.99501e-06
0 -0.966471 -0.984213 1.86857e-06
0 -0.970503 -0.984213 1.74971e-06
0 -0.974278 -0.984213 1.63804e-06
0 -0.977811 -0.984213 1.53317e-06
0 -0.981118 -0.984213 1.43473e-06
0 -0.984213 -0.984213 1.34235e-06
0 -0.987108 -0.984213 1.2557e-06
0 -0.989816 -0.984213 1.17445e-06
0 -0.992348 -0.984213 1.09829e-06
0 -0.994716 -0.984213 1.02693e-06
0 -0.99693 -0.984213 9.60066e-07
0 -0.999 -0.984213 8.97447e-07
0 -0.02 -0.981118 1.91841e-05
0 -0.0597753 -0.981118 1.89686e-05
0 -0.0990586 -0.981118 1.87121e-05
0 -0.137767 -0.981118 1.8417e-05
0 -0.175822 -0.981118 1.80857e-05
0 -0.213152 -0.981118 1.77212e-05
0 -0.24969 -0.981118 1.73265e-05
0 -0.285377 -0.981118 1.69048e-05
0 -0.32016 -0.981118 1.64593e-05
0 -0.353993 -0.981118 1.59933e-05
0 -0.386836 -0.981118 1.55102e-05
0 -0.418658 -0.981118 1.50133e-05
0 -0.449432 -0.981118 1.45056e-05
0 -0.47914 -0.981118 1.39902e-05
0 -0.507768 -0.981118 1.34701e-05
0 -0.53531 -0.981118 1.29481e-05
0 -0.561764 -0.981118 1.24265e-05
0 -0.587133 -0.981118 1.19079e-05
0 -0.611426 -0.981118 1.13943e-05
0 -0.634656 -0.981118 1.08878e-05
0 -0.656838 -0.981118 1.03898e-05
0 -0.677993 -0.981118 9.90213e-06
0 -0.698143 -0.981118 9.4259e-06
0 -0.717314 -0.981118 8.96223e-06
0 -0.735531 -0.981118 8.51204e-06
0 -0.752825 -0.981118 8.07606e-06
0 -0.769225 -0.981118 7.65485e-06
0 -0.784762 -0.981118 7.24882e-06
0 -0.799469 -0.981118 6.85825e-06
0 -0.813378 -0.981118 6.48328e-06
0 -0.826521 -0.981118 6.12396e-06
0 -0.838932 -0.981118 5.78022e-06
0 -0.850642 -0.981118 5.45193e-06
0 -0.861683 -0.981118 5.13885e-06
0 -0.872087 -0.981118 4.84071e-06
0 -0.881884 -0.981118 4.55717e-06
0 -0.891106 -0.981118 4.28785e-06
0 -0.89978 -0.981118 4.03232e-06
0 -0.907935 -0.981118 3.79016e-06
0 -0.915599 -0.981118 3.56089e-06
0 -0.922797 -0.981118 3.34403e-06
0 -0.929556 -0.981118 3.1391e-06
0 -0.935899 -0.981118 2.94559e-06
0 -0.941851 -0.981118 2.76302e-06
0 -0.947432 -0.981118 2.59088e-06
0 -0.952665 -0.981118 2.4287e-06
0 -0.95757 -0.981118 2.276e-06
0 -0.962166 -0.981118 2.1323e-06
0 -0.966471 -0.981118 1.99716e-06
0 -0.970503 -0.981118 1.87012e-06
0 -0.974278 -0.981118 1.75077e-06
0 -0.977811 -0.981118 1.63868e-06
0 -0.981118 -0.981118 1.53346e-06
0 -0.984213 -0.981118 1.43473e-06
0 -0.987108 -0.981118 1.34212e-06
0 -0.989816 -0.981118 1.25528e-06
0 -0.992348 -0.981118 1.17388e-06
0 -0.994716 -0.981118 1.0976e-06
0 -0.99693 -0.981118 1.02613e-06
0 -0.999 -0.981118 9.59206e-07
0 -0.02 -0.977811 2.05005e-05
0 -0.0597753 -0.977811 2.02702e-05
0 -0.0990586 -0.977811 1.99961e-05
0 -0.137767 -0.977811 1.96807e-05
0 -0.175822 -0.977811 1.93267e-05
0 -0.213152 -0.977811 1.89372e-05
0 -0.24969 -0.977811 1.85154e-05
0 -0.285377 -0.977811 1.80647e-05
0 -0.32016 -0.977811 1.75887e-05
0 -0.353993 -0.977811 1.70907e-05
0 -0.386836 -0.977811 1.65745e-05
0 -0.418658 -0.977811 1.60434e-05
0 -0.449432 -0.977811 1.55009e-05
0 -0.47914 -0.977811 1.49502e-05
0 -0.507768 -0.977811 1.43944e-05
0 -0.53531 -0.977811 1.38365e-05
0 -0.561764 -0.977811 1.32792e-05
0 -0.587133 -0.977811 1.2725e-05
0 -0.611426 -0.977811 1.21762e-05
0 -0.634656 -0.977811 1.16348e-05
0 -0.656838 -0.977811 1.11028e-05
0 -0.677993 -0.977811 1.05816e-05
0 -0.698143 -0.977811 1.00727e-05
0 -0.717314 -0.977811 9.57718e-06
0 -0.735531 -0.977811 9.09611e-06
0 -0.752825 -0.977811 8.63021e-06
0 -0.769225 -0.977811 8.1801e-06
0 -0.784762 -0.977811 7.74621e-06
0 -0.799469 -0.977811 7.32884e-06
0 -0.813378 -0.977811 6.92814e-06
0 -0.826521 -0.977811 6.54416e-06
0 -0.838932 -0.977811 6.17684e-06
0 -0.850642 -0.977811 5.82602e-06
0 -0.861683 -0.977811 5.49146e-06
0 -0.872087 -0.977811 5.17286e-06
0 -0.881884 -0.977811 4.86986e-06
0 -0.891106 -0.977811 4.58206e-06
0 -0.89978 -0.977811 4.30901e-06
0 -0.907935 -0.977811 4.05023e-06
0 -0.915599 -0.977811 3.80522e-06
0 -0.922797 -0.977811 3.57349e-06
0 -0.929556 -0.977811 3.35449e-06
0 -0.935899 -0.977811 3.1477e-06
0 -0.941851 -0.977811 2.9526e-06
0 -0.947432 -0.977811 2.76866e-06
0 -0.952665 -0.977811 2.59535e-06
0 -0.95757 -0.977811 2.43217e-06
0 -0.962166 -0.977811 2.27861e-06
0 -0.966471 -0.977811 2.1342e-06
0 -0.970503 -0.977811 1.99844e-06
0 -0.974278 -0.977811 1.8709e-06
0 -0.977811 -0.977811 1.75112e-06
0 -0.981118 -0.977811 1.63868e-06
0 -0.984213 -0.977811 1.53317e-06
0 -0.987108 -0.977811 1.43421e-06
0 -0.989816 -0.977811 1.34141e-06
0 -0.992348 -0.977811 1.25442e-06
0 -0.994716 -0.977811 1.17291e-06
0 -0.99693 -0.977811 1.09654e-06
0 -0.999 -0.977811 1.02502e-06
0 -0.02 -0.974278 2.19027e-05
0 -0.0597753 -0.974278 2.16567e-05
0 -0.0990586 -0.974278 2.13639e-05
0 -0.137767 -0.974278 2.10269e-05
0 -0.175822 -0.974278 2.06487e-05
0 -0.213152 -0.974278 2.02325e-05
0 -0.24969 -0.974278 1.97819e-05
0 -0.285377 -0.974278 1.93004e-05
0 -0.32016 -0.974278 1.87918e-05
0 -0.353993 -0.974278 1.82598e-05
0 -0.386836 -0.974278 1.77082e-05
0 -0.418658 -0.974278 1.71408e-05
0 -0.449432 -0.974278 1.65612e-05
0 -0.47914 -0.974278 1.59728e-05
0 -0.507768 -0.974278 1.5379e-05
0 -0.53531 -0.974278 1.47829e-05
0 -0.561764 -0.974278 1.41875e-05
0 -0.587133 -0.974278 1.35954e-05
0 -0.611426 -0.974278 1.30091e-05
0 -0.634656 -0.974278 1.24307e-05
0 -0.656838 -0.974278 1.18622e-05
0 -0.677993 -0.974278 1.13054e-05
0 -0.698143 -0.974278 1.07617e-05
0 -0.717314 -0.974278 1.02323e-05
0 -0.735531 -0.974278 9.7183e-06
0 -0.752825 -0.974278 9.22053e-06
0 -0.769225 -0.974278 8.73963e-06
0 -0.784762 -0.974278 8.27606e-06
0 -0.799469 -0.974278 7.83014e-06
0 -0.813378 -0.974278 7.40204e-06
0 -0.826521 -0.974278 6.9918e-06
0 -0.838932 -0.974278 6.59935e-06
0 -0.850642 -0.974278 6.22453e-06
0 -0.861683 -0.974278 5.86709e-06
0 -0.872087 -0.974278 5.52669e-06
0 -0.881884 -0.974278 5.20297e-06
0 -0.891106 -0.974278 4.89548e-06
0 -0.89978 -0.974278 4.60375e-06
0 -0.907935 -0.974278 4.32727e-06
0 -0.915599 -0.974278 4.06551e-06
0 -0.922797 -0.974278 3.81792e-06
0 -0.929556 -0.974278 3.58394e-06
0 -0.935899 -0.974278 3.36301e-06
0 -0.941851 -0.974278 3.15457e-06
0 -0.947432 -0.974278 2.95804e-06
0 -0.952665 -0.974278 2.77288e-06
0 -0.95757 -0.974278 2.59854e-06
0 -0.962166 -0.974278 2.43448e-06
0 -0.966471 -0.974278 2.28018e-06
0 -0.970503 -0.974278 2.13514e-06
0 -0.974278 -0.974278 1.99887e-06
0 -0.977811 -0.974278 1.8709e-06
0 -0.981118 -0.974278 1.75077e-06
0 -0.984213 -0.974278 1.63804e-06
0 -0.987108 -0.974278 1.53231e-06
0 -0.989816 -0.974278 1.43316e-06
0 -0.992348 -0.974278 1.34023e-06
0 -0.994716 -0.974278 1.25314e-06
0 -0.99693 -0.974278 1.17155e-06
0 -0.999 -0.974278 1.09514e-06
0 -0.02 -0.970503 2.33959e-05
0 -0.0597753 -0.970503 2.31331e-05
0 -0.0990586 -0.970503 2.28203e-05
0 -0.137767 -0.970503 2.24603e-05
0 -0.175822 -0.970503 2.20563e-05
0 -0.213152 -0.970503 2.16118e-05
0 -0.24969 -0.970503 2.11305e-05
0 -0.285377 -0.970503 2.06162e-05
0 -0.32016 -0.970503 2.00729e-05
0 -0.353993 -0.970503 1.95046e-05
0 -0.386836 -0.970503 1.89155e-05
0 -0.418658 -0.970503 1.83094e-05
0 -0.449432 -0.970503 1.76902e-05
0 -0.47914 -0.970503 1.70617e-05
0 -0.507768 -0.970503 1.64274e-05
0 -0.53531 -0.970503 1.57907e-05
0 -0.561764 -0.970503 1.51547e-05
0 -0.587133 -0.970503 1.45222e-05
0 -0.611426 -0.970503 1.38959e-05
0 -0.634656 -0.970503 1.32781e-05
0 -0.656838 -0.970503 1.26709e-05
0 -0.677993 -0.970503 1.20761e-05
0 -0.698143 -0.970503 1.14953e-05
0 -0.717314 -0.970503 1.09299e-05
0 -0.735531 -0.970503 1.03808e-05
0 -0.752825 -0.970503 9.84913e-06
0 -0.769225 -0.970503 9.33544e-06
0 -0.784762 -0.970503 8.84027e-06
0 -0.799469 -0.970503 8.36395e-06
0 -0.813378 -0.970503 7.90666e-06
0 -0.826521 -0.970503 7.46845e-06
0 -0.838932 -0.970503 7.04925e-06
0 -0.850642 -0.970503 6.64888e-06
0 -0.861683 -0.970503 6.26706e-06
0 -0.872087 -0.970503 5.90347e-06
0 -0.881884 -0.970503 5.55768e-06
0 -0.891106 -0.970503 5.22922e-06
0 -0.89978 -0.970503 4.9176e-06
0 -0.907935 -0.970503 4.62227e-06
0 -0.915599 -0.970503 4.34267e-06
0 -0.922797 -0.970503 4.0782e-06
0 -0.929556 -0.970503 3.82827e-06
0 -0.935899 -0.970503 3.59228e-06
0 -0.941851 -0.970503 3.36962e-06
0 -0.947432 -0.970503 3.1597e-06
0 -0.952665 -0.970503 2.96191e-06
0 -0.95757 -0.970503 2.77569e-06
0 -0.962166 -0.970503 2.60044e-06
0 -0.966471 -0.970503 2.43563e-06
0 -0.970503 -0.970503 2.2807e-06
0 -0.974278 -0.970503 2.13514e-06
0 -0.977811 -0.970503 1.99844e-06
0 -0.981118 -0.970503 1.87012e-06
0 -0.984213 -0.970503 1.74971e-06
0 -0.987108 -0.970503 1.63677e-06
0 -0.989816 -0.970503 1.53087e-06
0 -0.992348 -0.970503 1.43159e-06
0 -0.994716 -0.970503 1.33857e-06
0 -0.99693 -0.970503 1.25142e-06
0 -0.999 -0.970503 1.1698e-06
0 -0.02 -0.966471 2.49852e-05
0 -0.0597753 -0.966471 2.47045e-05
0 -0.0990586 -0.966471 2.43705e-05
0 -0.137767 -0.966471 2.3986e-05
0 -0.175822 -0.966471 2.35546e-05
0 -0.213152 -0.966471 2.30799e-05
0 -0.24969 -0.966471 2.25659e-05
0 -0.285377 -0.966471 2.20166e-05
0 -0.32016 -0.966471 2.14364e-05
0 -0.353993 -0.966471 2.08295e-05
0 -0.386836 -0.966471 2.02004e-05
0 -0.418658 -0.966471 1.95531e-05
0 -0.449432 -0.966471 1.88919e-05
0 -0.47914 -0.966471 1.82207e-05
0 -0.507768 -0.966471 1.75433e-05
0 -0.53531 -0.966471 1.68634e-05
0 -0.561764 -0.966471 1.61842e-05
0 -0.587133 -0.966471 1.55087e-05
0 -0.611426 -0.966471 1.48399e-05
0 -0.634656 -0.966471 1.41801e-05
0 -0.656838 -0.966471 1.35316e-05
0 -0.677993 -0.966471 1.28964e-05
0 -0.698143 -0.966471 1.22762e-05
0 -0.717314 -0.966471 1.16723e-05
0 -0.735531 -0.966471 1.1086e-05
0 -0.752825 -0.966471 1.05182e-05
0 -0.769225 -0.966471 9.96959e-06
0 -0.784762 -0.966471 9.44078e-06
0 -0.799469 -0.966471 8.9321e-06
0 -0.813378 -0.966471 8.44375e-06
0 -0.826521 -0.966471 7.97578e-06
0 -0.838932 -0.966471 7.5281e-06
0 -0.850642 -0.966471 7.10053e-06
0 -0.861683 -0.966471 6.69278e-06
0 -0.872087 -0.966471 6.30448e-06
0 -0.881884 -0.966471 5.9352e-06
0 -0.891106 -0.966471 5.58444e-06
0 -0.89978 -0.966471 5.25165e-06
0 -0.907935 -0.966471 4.93626e-06
0 -0.915599 -0.966471 4.63766e-06
0 -0.922797 -0.966471 4.35523e-06
0 -0.929556 -0.966471 4.08832e-06
0 -0.935899 -0.966471 3.8363e-06
0 -0.941851 -0.966471 3.59852e-06
0 -0.947432 -0.966471 3.37433e-06
0 -0.952665 -0.966471 3.16311e-06
0 -0.95757 -0.966471 2.96424e-06
0 -0.962166 -0.966471 2.77709e-06
0 -0.966471 -0.966471 2.60108e-06
0 -0.970503 -0.966471 2.43563e-06
0 -0.974278 -0.966471 2.28018e-06
0 -0.977811 -0.966471 2.1342e-06
0 -0.981118 -0.966471 1.99716e-06
0 -0.984213 -0.966471 1.86857e-06
0 -0.987108 -0.966471 1.74796e-06
0 -0.989816 -0.966471 1.63486e-06
0 -0.992348 -0.966471 1.52884e-06
0 -0.994716 -0.966471 1.4295e-06
0 -0.99693 -0.966471 1.33643e-06
0 -0.999 -0.966471 1.24926e-06
0 -0.02 -0.962166 2.66759e-05
0 -0.0597753 -0.962166 2.63762e-05
0 -0.0990586 -0.962166 2.60196e-05
0 -0.137767 -0.962166 2.56091e-05
0 -0.175822 -0.962166 2.51485e-05
0 -0.213152 -0.962166 2.46417e-05
0 -0.24969 -0.962166 2.40928e-05
0 -0.285377 -0.962166 2.35064e-05
0 -0.32016 -0.962166 2.2887e-05
0 -0.353993 -0.962166 2.2239e-05
0 -0.386836 -0.962166 2.15673e-05
0 -0.418658 -0.962166 2.08762e-05
0 -0.449432 -0.962166 2.01703e-05
0 -0.47914 -0.962166 1.94537e-05
0 -0.507768 -0.962166 1.87305e-05
0 -0.53531 -0.962166 1.80045e-05
0 -0.561764 -0.962166 1.72793e-05
0 -0.587133 -0.962166 1.65582e-05
0 -0.611426 -0.962166 1.5844e-05
0 -0.634656 -0.962166 1.51396e-05
0 -0.656838 -0.962166 1.44473e-05
0 -0.677993 -0.962166 1.37691e-05
0 -0.698143 -0.962166 1.31069e-05
0 -0.717314 -0.962166 1.24621e-05
0 -0.735531 -0.962166 1.18362e-05
0 -0.752825 -0.962166 1.12299e-05
0 -0.769225 -0.962166 1.06442e-05
0 -0.784762 -0.962166 1.00796e-05
0 -0.799469 -0.962166 9.53652e-06
0 -0.813378 -0.962166 9.01512e-06
0 -0.826521 -0.962166 8.51548e-06
0 -0.838932 -0.962166 8.03751e-06
0 -0.850642 -0.962166 7.58101e-06
0 -0.861683 -0.962166 7.14567e-06
0 -0.872087 -0.962166 6.7311e-06
0 -0.881884 -0.962166 6.33683e-06
0 -0.891106 -0.962166 5.96233e-06
0 -0.89978 -0.962166 5.60702e-06
0 -0.907935 -0.962166 5.27029e-06
0 -0.915599 -0.962166 4.95148e-06
0 -0.922797 -0.962166 4.64994e-06
0 -0.929556 -0.962166 4.36497e-06
0 -0.935899 -0.962166 4.0959e-06
0 -0.941851 -0.962166 3.84202e-06
0 -0.947432 -0.962166 3.60267e-06
0 -0.952665 -0.962166 3.37716e-06
0 -0.95757 -0.962166 3.16482e-06
0 -0.962166 -0.962166 2.96501e-06
0 -0.966471 -0.962166 2.77709e-06
0 -0.970503 -0.962166 2.60044e-06
0 -0.974278 -0.962166 2.43448e-06
0 -0.977811 -0.962166 2.27861e-06
0 -0.981118 -0.962166 2.1323e-06
0 -0.984213 -0.962166 1.99501e-06
0 -0.987108 -0.962166 1.86624e-06
0 -0.989816 -0.962166 1.74548e-06
0 -0.992348 -0.962166 1.6323e-06
0 -0.994716 -0.962166 1.52623e-06
0 -0.99693 -0.962166 1.42686e-06
0 -0.999 -0.962166 1.33379e-06
0 -0.02 -0.95757 2.84736e-05
0 -0.0597753 -0.95757 2.81537e-05
0 -0.0990586 -0.95757 2.7773e-05
0 -0.137767 -0.95757 2.73349e-05
0 -0.175822 -0.95757 2.68433e-05
0 -0.213152 -0.95757 2.63023e-05
0 -0.24969 -0.95757 2.57165e-05
0 -0.285377 -0.95757 2.50905e-05
0 -0.32016 -0.95757 2.44293e-05
0 -0.353993 -0.95757 2.37377e-05
0 -0.386836 -0.95757 2.30207e-05
0 -0.418658 -0.95757 2.22831e-05
0 -0.449432 -0.95757 2.15295e-05
0 -0.47914 -0.95757 2.07646e-05
0 -0.507768 -0.95757 1.99927e-05
0 -0.53531 -0.95757 1.92178e-05
0 -0.561764 -0.95757 1.84438e-05
0 -0.587133 -0.95757 1.7674e-05
0 -0.611426 -0.95757 1.69118e-05
0 -0.634656 -0.95757 1.61599e-05
0 -0.656838 -0.95757 1.54209e-05
0 -0.677993 -0.95757 1.4697e-05
0 -0.698143 -0.95757 1.39902e-05
0 -0.717314 -0.95757 1.3302e-05
0 -0.735531 -0.95757 1.26338e-05
0 -0.752825 -0.95757 1.19867e-05
0 -0.769225 -0.95757 1.13615e-05
0 -0.784762 -0.95757 1.07589e-05
0 -0.799469 -0.95757 1.01792e-05
0 -0.813378 -0.95757 9.62265e-06
0 -0.826521 -0.95757 9.08934e-06
0 -0.838932 -0.95757 8.57916e-06
0 -0.850642 -0.95757 8.09189e-06
0 -0.861683 -0.95757 7.62721e-06
0 -0.872087 -0.95757 7.18471e-06
0 -0.881884 -0.95757 6.76387e-06
0 -0.891106 -0.95757 6.36413e-06
0 -0.89978 -0.95757 5.98488e-06
0 -0.907935 -0.95757 5.62545e-06
0 -0.915599 -0.95757 5.28516e-06
0 -0.922797 -0.95757 4.9633e-06
0 -0.929556 -0.95757 4.65913e-06
0 -0.935899 -0.95757 4.37192e-06
0 -0.941851 -0.95757 4.10094e-06
0 -0.947432 -0.95757 3.84545e-06
0 -0.952665 -0.95757 3.60474e-06
0 -0.95757 -0.95757 3.3781e-06
0 -0.962166 -0.95757 3.16482e-06
0 -0.966471 -0.95757 2.96424e-06
0 -0.970503 -0.95757 2.77569e-06
0 -0.974278 -0.95757 2.59854e-06
0 -0.977811 -0.95757 2.43217e-06
0 -0.981118 -0.95757 2.276e-06
0 -0.984213 -0.95757 2.12946e-06
0 -0.987108 -0.95757 1.992e-06
0 -0.989816 -0.95757 1.86311e-06
0 -0.992348 -0.95757 1.7423e-06
0 -0.994716 -0.95757 1.62908e-06
0 -0.99693 -0.95757 1.52301e-06
0 -0.999 -0.95757 1.42368e-06
0 -0.02 -0.952665 3.03839e-05
0 -0.0597753 -0.952665 3.00426e-05
0 -0.0990586 -0.952665 2.96364e-05
0 -0.137767 -0.952665 2.91689e-05
0 -0.175822 -0.952665 2.86443e-05
0 -0.213152 -0.952665 2.8067e-05
0 -0.24969 -0.952665 2.74418e-05
0 -0.285377 -0.952665 2.67739e-05
0 -0.32016 -0.952665 2.60683e-05
0 -0.353993 -0.952665 2.53304e-05
0 -0.386836 -0.952665 2.45652e-05
0 -0.418658 -0.952665 2.37781e-05
0 -0.449432 -0.952665 2.2974e-05
0 -0.47914 -0.952665 2.21578e-05
0 -0.507768 -0.952665 2.13341e-05
0 -0.53531 -0.952665 2.05072e-05
0 -0.561764 -0.952665 1.96812e-05
0 -0.587133 -0.952665 1.88598e-05
0 -0.611426 -0.952665 1.80464e-05
0 -0.634656 -0.952665 1.72441e-05
0 -0.656838 -0.952665 1.64555e-05
0 -0.677993 -0.952665 1.56831e-05
0 -0.698143 -0.952665 1.49288e-05
0 -0.717314 -0.952665 1.41944e-05
0 -0.735531 -0.952665 1.34814e-05
0 -0.752825 -0.952665 1.27909e-05
0 -0.769225 -0.952665 1.21238e-05
0 -0.784762 -0.952665 1.14807e-05
0 -0.799469 -0.952665 1.08621e-05
0 -0.813378 -0.952665 1.02683e-05
0 -0.826521 -0.952665 9.69917e-06
0 -0.838932 -0.952665 9.15476e-06
0 -0.850642 -0.952665 8.6348e-06
0 -0.861683 -0.952665 8.13894e-06
0 -0.872087 -0.952665 7.66675e-06
0 -0.881884 -0.952665 7.21767e-06
0 -0.891106 -0.952665 6.79112e-06
0 -0.89978 -0.952665 6.38642e-06
0 -0.907935 -0.952665 6.00288e-06
0 -0.915599 -0.952665 5.63976e-06
0 -0.922797 -0.952665 5.2963e-06
0 -0.929556 -0.952665 4.97172e-06
0 -0.935899 -0.952665 4.66524e-06
0 -0.941851 -0.952665 4.37608e-06
0 -0.947432 -0.952665 4.10346e-06
0 -0.952665 -0.952665 3.8466e-06
0 -0.95757 -0.952665 3.60474e-06
0 -0.962166 -0.952665 3.37716e-06
0 -0.966471 -0.952665 3.16311e-06
0 -0.970503 -0.952665 2.96191e-06
0 -0.974278 -0.952665 2.77288e-06
0 -0.977811 -0.952665 2.59535e-06
0 -0.981118 -0.952665 2.4287e-06
0 -0.984213 -0.952665 2.27233e-06
0 -0.987108 -0.952665 2.12565e-06
0 -0.989816 -0.952665 1.98811e-06
0 -0.992348 -0.952665 1.85919e-06
0 -0.994716 -0.952665 1.73838e-06