/*--------------------------------*- C++ -*----------------------------------*\
| =========                 |                                                 |
| \\      /  F ield         | OpenFOAM: The Open Source CFD Toolbox           |
|  \\    /   O peration     | Version:  2212                                  |
|   \\  /    A nd           | Website:  www.openfoam.com                      |
|    \\/     M anipulation  |                                                 |
\*---------------------------------------------------------------------------*/
FoamFile
{
    version     2.0;
    format      ascii;
    arch        "LSB;label=32;scalar=64";
    class       volScalarField;
    location    "1";
    object      omega;
}
// * * * * * * * * * * * * * * * * * * * * * * * * * * * * * * * * * * * * * //

dimensions      [0 0 -1 0 0 0 0];

internalField   nonuniform List<scalar> 
120
(
0.298131
0.30642
0.32515
0.351691
0.388194
0.434308
0.489697
0.555941
0.635131
0.728087
0.832132
0.948456
1.0764
1.21893
1.37811
1.55204
1.74604
1.964
2.21129
2.49148
2.81038
3.17349
3.58777
4.06141
4.60395
5.22686
5.94307
6.7682
7.72081
8.82334
10.1026
11.5908
13.3271
15.3609
17.7531
20.5758
23.918
27.8922
32.6414
38.35
45.257
53.6772
64.0288
76.8776
92.9932
113.439
139.699
173.868
218.96
279.443
362.365
479.8
655.285
941.229
1463.55
2538.39
5054.19
12207.4
40761
256000
256000
40761.1
12207.3
5054
2538.04
1463.04
940.66
654.762
479.364
362.016
279.163
218.733
173.681
139.542
113.306
92.8788
76.7788
63.9437
53.6035
45.1937
38.2954
32.5943
27.8508
23.8818
20.5445
17.7264
15.3381
13.3072
11.5734
10.0879
8.81138
7.71072
6.7597
5.93621
5.22159
4.60031
4.05925
3.58722
3.17471
2.81362
2.49671
2.21775
1.97229
1.75512
1.56213
1.39079
1.23543
1.0938
0.963698
0.847131
0.740871
0.647009
0.567794
0.498023
0.439587
0.39175
0.35514
0.327741
0.309387
0.299048
)
;

boundaryField
{
    bottomWall
    {
        type            omegaWallFunction;
        blending        binomial;
        n               2;
        value           uniform 256000;
    }
    sides1_half01
    {
        type            empty;
    }
    sides1_half11
    {
        type            empty;
    }
    sides2_half01
    {
        type            empty;
    }
    sides2_half11
    {
        type            empty;
    }
    topWall
    {
        type            omegaWallFunction;
        blending        binomial;
        n               2;
        value           uniform 256000;
    }
    inout1_half0
    {
        type            cyclic;
    }
    inout1_half1
    {
        type            cyclic;
    }
    inout2_half0
    {
        type            cyclic;
    }
    inout2_half1
    {
        type            cyclic;
    }
}


// ************************************************************************* //
