/*--------------------------------*- C++ -*----------------------------------*\
| =========                 |                                                 |
| \\      /  F ield         | OpenFOAM: The Open Source CFD Toolbox           |
|  \\    /   O peration     | Version:  2212                                  |
|   \\  /    A nd           | Website:  www.openfoam.com                      |
|    \\/     M anipulation  |                                                 |
\*---------------------------------------------------------------------------*/
FoamFile
{
    version     2.0;
    format      ascii;
    arch        "LSB;label=32;scalar=64";
    class       volScalarField;
    location    "1";
    object      p;
}
// * * * * * * * * * * * * * * * * * * * * * * * * * * * * * * * * * * * * * //

dimensions      [0 2 -2 0 0 0 0];

internalField   nonuniform List<scalar> 
120
(
1.11248e-10
1.82548e-05
5.50616e-05
0.000110529
0.00018373
0.000273626
0.000378804
0.000495963
0.000620506
0.000740789
0.000839564
0.000914871
0.0009776
0.00103257
0.00108043
0.0011227
0.00116035
0.00119383
0.00122356
0.00124993
0.00127325
0.0012938
0.00131182
0.00132751
0.00134109
0.00135276
0.00136269
0.00137108
0.00137806
0.00138374
0.00138821
0.00139156
0.00139382
0.00139494
0.00139489
0.00139363
0.0013911
0.00138716
0.00138158
0.00137401
0.00136396
0.0013507
0.00133318
0.00130986
0.00127852
0.00123602
0.00117812
0.00109975
0.000995421
0.000859014
0.000679098
0.000457342
0.000239211
8.55555e-05
1.41154e-05
-3.97824e-06
-4.00616e-06
-2.55793e-06
-2.24313e-06
-2.31079e-06
-2.31148e-06
-2.24375e-06
-2.55277e-06
-3.98672e-06
-3.98821e-06
1.38437e-05
8.45578e-05
0.000237075
0.000454151
0.000675334
0.000854979
0.000991197
0.00109542
0.00117374
0.00123161
0.00127411
0.00130543
0.00132874
0.00134625
0.0013595
0.00136954
0.00137709
0.00138267
0.00138661
0.00138913
0.00139038
0.00139042
0.00138929
0.00138704
0.00138368
0.00137918
0.00137349
0.00136652
0.00135812
0.00134817
0.00133649
0.00132289
0.00130715
0.00128906
0.00126839
0.00124492
0.00121842
0.00118858
0.00115508
0.00111736
0.00107462
0.00102607
0.00097099
0.000908798
0.000833955
0.000735711
0.000615722
0.000491097
0.000374792
0.00027065
0.000180912
0.00010781
5.28987e-05
1.69062e-05
-4.6756e-07
)
;

boundaryField
{
    bottomWall
    {
        type            zeroGradient;
    }
    sides1_half01
    {
        type            empty;
    }
    sides1_half11
    {
        type            empty;
    }
    sides2_half01
    {
        type            empty;
    }
    sides2_half11
    {
        type            empty;
    }
    topWall
    {
        type            zeroGradient;
    }
    inout1_half0
    {
        type            cyclic;
    }
    inout1_half1
    {
        type            cyclic;
    }
    inout2_half0
    {
        type            cyclic;
    }
    inout2_half1
    {
        type            cyclic;
    }
}


// ************************************************************************* //
