/*--------------------------------*- C++ -*----------------------------------*\
| =========                 |                                                 |
| \\      /  F ield         | OpenFOAM: The Open Source CFD Toolbox           |
|  \\    /   O peration     | Version:  2212                                  |
|   \\  /    A nd           | Website:  www.openfoam.com                      |
|    \\/     M anipulation  |                                                 |
\*---------------------------------------------------------------------------*/
FoamFile
{
    version     2.0;
    format      ascii;
    arch        "LSB;label=32;scalar=64";
    class       volVectorField;
    location    "1";
    object      U;
}
// * * * * * * * * * * * * * * * * * * * * * * * * * * * * * * * * * * * * * //

dimensions      [0 1 -1 0 0 0 0];

internalField   nonuniform List<vector> 
120
(
(1.09649 -1.58646e-07 0)
(1.09556 -4.23215e-07 0)
(1.09374 -1.13239e-07 0)
(1.09102 -7.31963e-08 0)
(1.08735 -7.11774e-07 0)
(1.08266 -3.54769e-07 0)
(1.07686 9.17136e-07 0)
(1.06989 1.2045e-06 0)
(1.06169 1.0456e-05 0)
(1.05226 1.22939e-05 0)
(1.04159 -5.37994e-06 0)
(1.02977 -6.65541e-06 0)
(1.017 7.97907e-07 0)
(1.00355 -7.21138e-07 0)
(0.98964 -7.72018e-07 0)
(0.975426 -1.24162e-07 0)
(0.961003 -4.42931e-08 0)
(0.946432 -6.73331e-08 0)
(0.931755 -4.8074e-08 0)
(0.917 3.97632e-08 0)
(0.902189 1.74211e-08 0)
(0.887342 5.73128e-08 0)
(0.872472 5.96397e-08 0)
(0.857586 6.83461e-08 0)
(0.84269 5.44614e-08 0)
(0.827783 4.86811e-08 0)
(0.81286 6.77733e-08 0)
(0.797915 8.85027e-08 0)
(0.782934 1.04918e-07 0)
(0.767903 1.17978e-07 0)
(0.752802 1.43762e-07 0)
(0.737607 2.11882e-07 0)
(0.72229 2.92975e-07 0)
(0.706818 3.16759e-07 0)
(0.691152 3.46164e-07 0)
(0.675247 4.51067e-07 0)
(0.659051 6.09374e-07 0)
(0.642505 8.23567e-07 0)
(0.625538 1.12102e-06 0)
(0.608066 1.55638e-06 0)
(0.589987 2.2167e-06 0)
(0.571176 3.2375e-06 0)
(0.551483 4.81312e-06 0)
(0.53072 7.25282e-06 0)
(0.508662 1.09318e-05 0)
(0.485032 1.60612e-05 0)
(0.459507 2.22232e-05 0)
(0.431718 2.93343e-05 0)
(0.40128 3.98746e-05 0)
(0.367877 7.1345e-05 0)
(0.33136 1.19537e-05 0)
(0.291764 -0.000152595 0)
(0.24953 -0.000170079 0)
(0.206071 -1.31678e-05 0)
(0.163818 8.06958e-05 0)
(0.125003 5.22219e-05 0)
(0.0905407 1.08431e-05 0)
(0.0603149 -1.02447e-06 0)
(0.0338815 -9.60061e-07 0)
(0.0107765 -1.83061e-07 0)
(0.0107426 1.79815e-07 0)
(0.0337751 9.48683e-07 0)
(0.0601254 1.03152e-06 0)
(0.0902564 -1.0665e-05 0)
(0.124611 -5.17133e-05 0)
(0.16331 -8.05023e-05 0)
(0.205451 1.20807e-05 0)
(0.248813 0.000168586 0)
(0.290972 0.000153253 0)
(0.330509 -1.07647e-05 0)
(0.366978 -7.14501e-05 0)
(0.400342 -3.98325e-05 0)
(0.430747 -2.9308e-05 0)
(0.458507 -2.22205e-05 0)
(0.484005 -1.60746e-05 0)
(0.507608 -1.09468e-05 0)
(0.529642 -7.26664e-06 0)
(0.550379 -4.82268e-06 0)
(0.570048 -3.24376e-06 0)
(0.588834 -2.2251e-06 0)
(0.606889 -1.56426e-06 0)
(0.624338 -1.11832e-06 0)
(0.641281 -8.14398e-07 0)
(0.657803 -6.10167e-07 0)
(0.673975 -4.571e-07 0)
(0.689857 -3.59153e-07 0)
(0.7055 -3.14852e-07 0)
(0.72095 -2.7183e-07 0)
(0.736245 -2.08563e-07 0)
(0.751419 -1.68432e-07 0)
(0.7665 -1.26662e-07 0)
(0.781511 -8.38836e-08 0)
(0.796473 -8.2465e-08 0)
(0.811401 -7.2889e-08 0)
(0.826307 -5.70857e-08 0)
(0.841201 -5.18405e-08 0)
(0.856086 -4.78037e-08 0)
(0.870965 -4.71247e-08 0)
(0.885835 -6.94414e-08 0)
(0.900688 -8.61852e-08 0)
(0.915513 -2.35278e-10 0)
(0.930293 2.60865e-09 0)
(0.945007 1.94939e-08 0)
(0.959625 3.5749e-07 0)
(0.97411 2.81413e-07 0)
(0.988406 2.03023e-07 0)
(1.00242 1.36023e-07 0)
(1.01601 -6.4785e-08 0)
(1.02893 7.1229e-06 0)
(1.04092 4.82892e-06 0)
(1.05175 -1.13698e-05 0)
(1.06136 -1.16566e-05 0)
(1.06972 -1.73913e-06 0)
(1.07682 6.22327e-07 0)
(1.08269 -4.98023e-08 0)
(1.08742 2.24038e-07 0)
(1.0911 5.70385e-08 0)
(1.09382 3.58278e-07 0)
(1.09563 4.03768e-07 0)
(1.09651 2.70633e-07 0)
)
;

boundaryField
{
    bottomWall
    {
        type            fixedValue;
        value           uniform (0 0 0);
    }
    sides1_half01
    {
        type            empty;
    }
    sides1_half11
    {
        type            empty;
    }
    sides2_half01
    {
        type            empty;
    }
    sides2_half11
    {
        type            empty;
    }
    topWall
    {
        type            fixedValue;
        value           uniform (0 0 0);
    }
    inout1_half0
    {
        type            cyclic;
    }
    inout1_half1
    {
        type            cyclic;
    }
    inout2_half0
    {
        type            cyclic;
    }
    inout2_half1
    {
        type            cyclic;
    }
}


// ************************************************************************* //
