1.003986168598475448e+00
1.004256809252680460e+00
1.004535617421467686e+00
1.004856243339921296e+00
1.005226378145174015e+00
1.005629628462373581e+00
1.006041437396897553e+00
1.006438487544061289e+00
1.006821800077683182e+00
1.007186210443866470e+00
1.007530517911545243e+00
1.007856847405309342e+00
1.008160054302996489e+00
1.008426935485071896e+00
1.008661729377435146e+00
1.008860592905728160e+00
1.009029149148819249e+00
1.009164317613512107e+00
1.009265228269047965e+00
1.009348318054329896e+00
1.009410327006805108e+00
1.009458806036859002e+00
1.009495866472015058e+00
1.009532926818596854e+00
1.009571081570458384e+00
1.009625077330718712e+00
1.009691724667244550e+00
1.009776324586588281e+00
1.009879832387015508e+00
1.010001092977340642e+00
1.010154174107924518e+00
1.010339831848764636e+00
1.010554182159976611e+00
1.010777918301539735e+00
1.011015104519662478e+00
1.011270460540906413e+00
1.011529882969572469e+00
1.011795979154259228e+00
1.012070227029863601e+00
1.012350938741505280e+00
1.012636959998132413e+00
1.012937188199819705e+00
1.013246392583958322e+00
1.013566626157956119e+00
1.013907938846937862e+00
1.014267872150436123e+00
1.014653935906289828e+00
1.015067076997371975e+00
1.015456416723891975e+00
1.015738635548945945e+00
1.015333585752471457e+00
1.014233854012579927e+00
1.012252884791392749e+00
1.009572983146187264e+00
1.005884170570260139e+00
1.001476828506729255e+00
9.963275709171218741e-01
9.904437117858843065e-01
9.838859421423644669e-01
9.763671208665883894e-01
9.682336948909199270e-01
9.593072683823523628e-01
9.495179047338762057e-01
9.391280874191169081e-01
9.280830801230564031e-01
9.164088402143081291e-01
9.041945380172551339e-01
8.915557551073852727e-01
8.785460524060790810e-01
8.651958235114858287e-01
8.515853380957384422e-01
8.378185674304211572e-01
8.239371581434395964e-01
8.099934950565605973e-01
7.960319513678613124e-01
7.820921286082804791e-01
7.681880879159558306e-01
7.541946199415133778e-01
7.402898178851040623e-01
7.265697985183089402e-01
7.130838702711536081e-01
6.998830583787204462e-01
6.869552018279792005e-01
6.742952654850281613e-01
6.619746813860513113e-01
6.499876124943096967e-01
6.383116223411442469e-01
6.269204031479287398e-01
6.159189132791282884e-01
6.051947615426712668e-01
5.947288697458883444e-01
5.846902651855621080e-01
5.748515087161659709e-01
5.653484784149594988e-01
5.560987368675830433e-01
5.470681286549708977e-01
5.384804642679342779e-01
5.298925199072211933e-01
5.217816838634747878e-01
5.138794469248556540e-01
5.060266020590399316e-01
4.985709884857653096e-01
4.913670500822607257e-01
4.841626408283159488e-01
4.772093051854163215e-01
4.706835860442856734e-01
4.641781382539155176e-01
4.576841285408534410e-01
4.515087742981580554e-01
4.456898433477641808e-01
4.398711848233358146e-01
4.340519415035857809e-01
4.284174018836887643e-01
4.231762062904347865e-01
4.180184321878512854e-01
4.128608369518273480e-01
4.077031626342005888e-01
4.026946431143764160e-01
3.981488880351961579e-01
3.936142055219783442e-01
3.890799300521763926e-01
3.845453391314050395e-01
3.800421893555772090e-01
3.758430779602841554e-01
3.718919727664006802e-01
3.679405798053016485e-01
3.639894058534509647e-01
3.600384162165161106e-01
3.560870232554171899e-01
3.522925770491520669e-01
3.488956095119702394e-01
3.454986419747884119e-01
3.421017067086756236e-01
3.387047391714937961e-01
3.353078039053810633e-01
3.319108363681992357e-01
3.285553700885994743e-01
3.256706063845385968e-01
3.227861568447998875e-01
3.199016363663270690e-01
3.170174300521764188e-01
3.141328649554890329e-01
3.112484600339648355e-01
3.083642077605123211e-01
3.055263203047519638e-01
3.030059728496224403e-01
3.005748025415367897e-01
2.981436553294814495e-01
2.957124850213957434e-01
2.932810300942594872e-01
2.908495827059331962e-01
2.884184123978476011e-01
2.859872420897620060e-01
2.835561179737368653e-01
2.813769333678293183e-01
2.793395139545469807e-01
2.773053994365828889e-01
2.752711661559407164e-01
2.732367774653850501e-01
2.712027395486045211e-01
2.691683907039721380e-01
2.671340789197219623e-01
2.651000423055493993e-01
2.630658574632839808e-01
2.611177422466295361e-01
2.593792660293448016e-01
2.576943382391217452e-01
2.560090246763805921e-01
2.543242853118302116e-01
2.526390020977483664e-01
2.509540743075252545e-01
2.492688015959321213e-01
2.475836339317575296e-01
2.458987060609751640e-01
2.442133498905685873e-01
2.425282977903841786e-01
2.409201590269040849e-01
2.395071068721807694e-01
2.381292228076409001e-01
2.367513125629057968e-01
2.353734023181706936e-01
2.339954920734355903e-01
2.326175818287004871e-01
2.312396977641605900e-01
2.298617875194254867e-01
2.284839677370405220e-01
2.271065518252769477e-01
2.257278926085213022e-01
2.243501920304898922e-01
2.229833376151900970e-01
2.217456577853611777e-01
2.206342179945333659e-01
2.195239142152244916e-01
2.184143278931583443e-01
2.173049611231267220e-01
2.161933684210526341e-01
2.150832744311606815e-01
2.139740228617368900e-01
2.128642644608922385e-01
2.117525188475719300e-01
2.106426185996995992e-01
2.095333261995024066e-01
2.084235467129275932e-01
2.073116692740912259e-01
2.062024090238427643e-01
2.051547870090854597e-01
2.042454867287255560e-01
2.033634778689369926e-01
2.024828142897586725e-01
2.016023600286500350e-01
2.007215003427104683e-01
1.998394914829219049e-01
1.989588520123223847e-01
1.980783736426349473e-01
1.971980462488737151e-01
1.963155050969068449e-01
1.954349064570806982e-01
1.945543705203494067e-01
1.936741006936320286e-01
1.927915187108918127e-01
1.919109609018389839e-01
1.910303841343343467e-01
1.901538244318900783e-01
1.893919012272593794e-01
1.887029193030173024e-01
1.880139373787752810e-01
1.873247926969707489e-01
1.866343897647623484e-01
1.859450636428577885e-01
1.852560817186157394e-01
1.845668421052631958e-01
1.838767616116550874e-01
1.831877796874130659e-01
1.824988108537778375e-01
1.818094763088772270e-01
1.811194907468172133e-01
1.804305088225751363e-01
1.797415268983331149e-01
1.790523655691251548e-01
1.783621809872397712e-01
1.776726531624156225e-01
