9.980999826999999991e-01
9.981999993000000293e-01
9.983000158999999485e-01
9.983000158999999485e-01
9.983999729000000434e-01
9.983999729000000434e-01
9.984999894999999626e-01
9.984999894999999626e-01
9.986000060999999928e-01
9.986000060999999928e-01
9.986000060999999928e-01
9.987999797000000068e-01
9.988999963000000371e-01
9.991000294999999864e-01
9.991999864999999703e-01
9.993000031000000005e-01
9.994000196000000225e-01
9.995999932000000365e-01
9.997000097999999557e-01
9.998000263999999859e-01
9.998999833999999698e-01
1.000000000000000000e+00
1.000000000000000000e+00
1.000000000000000000e+00
1.000000000000000000e+00
1.000000000000000000e+00
1.000000000000000000e+00
1.000000000000000000e+00
1.000000000000000000e+00
1.000000000000000000e+00
9.998999833999999698e-01
9.998000263999999859e-01
9.995999932000000365e-01
9.994000196000000225e-01
9.991000294999999864e-01
9.987999797000000068e-01
9.983999729000000434e-01
9.980000257000000152e-01
9.976000189999999490e-01
9.970999955999999553e-01
9.965000152999999861e-01
9.958999752999999622e-01
9.951000213999999788e-01
9.943000078000000519e-01
9.933999776999999920e-01
9.922999740000000291e-01
9.911000132999999712e-01
9.897999763000000506e-01
9.883000254999999568e-01
9.865999817999999699e-01
9.847999810999999992e-01
9.828000069000000227e-01
9.804999827999999473e-01
9.781000018000000074e-01
9.753999709999999768e-01
9.724000095999999482e-01
9.692999720999999624e-01
9.659000038999999704e-01
9.621999860000000071e-01
9.584000110999999489e-01
9.542999864000000221e-01
9.499999880999999702e-01
9.455000162000000152e-01
9.408000112000000081e-01
9.358999729000000434e-01
9.308000207000000081e-01
9.255999923000000074e-01
9.200999736999999623e-01
9.146000146999999636e-01
9.089000225000000155e-01
9.031000137000000372e-01
8.970999718000000067e-01
8.910999894000000143e-01
8.848999738999999698e-01
8.787000178999999633e-01
8.723999857999999996e-01
8.661000132999999712e-01
8.597000241000000154e-01
8.532999754000000214e-01
8.468000292999999790e-01
8.402000069999999710e-01
8.337000011999999849e-01
8.270999788999999769e-01
8.205000162000000152e-01
8.137999772999999770e-01
8.070999979999999852e-01
8.004999756999999772e-01
7.937999963999999853e-01
7.871999740999999773e-01
7.806000113000000074e-01
7.741000056000000296e-01
7.675999999000000518e-01
7.610999941999999630e-01
7.547000051000000154e-01
7.483000158999999485e-01
7.419999837999999848e-01
7.358000277999999783e-01
7.296000123000000448e-01
7.235000134000000305e-01
7.174000144000000079e-01
7.114999889999999994e-01
7.056000233000000454e-01
6.998000144999999561e-01
6.940000056999999778e-01
6.883999705000000136e-01
6.827999948999999846e-01
6.772000193999999640e-01
6.718000173999999491e-01
6.662999988000000151e-01
6.608999968000000003e-01
6.556000113000000074e-01
6.503000259000000227e-01
6.450999975000000219e-01
6.399000286999999565e-01
6.348000168999999859e-01
6.297000051000000154e-01
6.245999932000000365e-01
6.194999813999999549e-01
6.144999862000000146e-01
6.094999908999999549e-01
6.044999957000000146e-01
5.996000170999999934e-01
5.947999953999999478e-01
5.899999738000000216e-01
5.852000117000000223e-01
5.805000067000000152e-01
5.759000182000000301e-01
5.713000298000000532e-01
5.667999983000000519e-01
5.623999833999999698e-01
5.580000281000000451e-01
5.536999701999999468e-01
5.493999720000000142e-01
5.451999902999999925e-01
5.411000252000000010e-01
5.371000170999999934e-01
5.331000089999999858e-01
5.292000175000000084e-01
5.253999829000000066e-01
5.216000079999999484e-01
5.178999900999999850e-01
5.141999722000000217e-01
5.106999873999999995e-01
5.070999860999999553e-01
5.037000178999999633e-01
5.002999902000000443e-01
4.970000088000000038e-01
4.938000142999999786e-01
4.905999898999999775e-01
4.873999952999999996e-01
4.842999875999999815e-01
4.812999963999999853e-01
4.781999886000000144e-01
4.753000139999999929e-01
4.724000096000000037e-01
4.695000052000000146e-01
4.666000008999999782e-01
4.638000131000000192e-01
4.609999954999999816e-01
4.582000077000000227e-01
4.553999900999999850e-01
4.526999890999999776e-01
4.499999881000000257e-01
4.472999871000000183e-01
4.445999861000000108e-01
4.420000016999999781e-01
4.393999874999999777e-01
4.368000031000000005e-01
4.343000054000000221e-01
4.318000077999999964e-01
4.293000102000000262e-01
4.268999994000000076e-01
4.244000017999999819e-01
4.219999909000000105e-01
4.196000099000000150e-01
4.172999859000000034e-01
4.149000049000000079e-01
4.126000106000000112e-01
4.101999997999999925e-01
4.079000056000000041e-01
4.056000113000000074e-01
4.032999872999999957e-01
4.009999931000000073e-01
3.986999989000000189e-01
3.964000046000000221e-01
3.941000103999999782e-01
3.917999864000000221e-01
3.896000087000000001e-01
3.874000013000000187e-01
3.851999937999999735e-01
3.831000030000000223e-01
3.810999990000000226e-01
3.790999949000000147e-01
3.770999908000000067e-01
3.750999868000000070e-01
3.731000125000000223e-01
3.711999952999999741e-01
3.693000077999999964e-01
3.675000071999999784e-01
3.655999898999999775e-01
3.637999892000000068e-01
3.619999885999999889e-01
3.603000044999999929e-01
3.585999905999999737e-01
3.569000064999999777e-01
3.551999927000000223e-01
3.535999953999999779e-01
3.519000112999999819e-01
3.501999974000000182e-01
3.485000133999999750e-01
3.467999995000000113e-01
3.450999855999999921e-01
3.434000014999999961e-01
3.418000042000000072e-01
3.402000070000000265e-01
3.386999964999999890e-01
3.371999860000000071e-01
3.357000052999999928e-01
3.343000113999999856e-01
3.328000009000000037e-01
3.314000069999999964e-01
3.300000130999999892e-01
3.285999894000000143e-01
3.273000120999999818e-01
3.258999884000000069e-01
3.244999944999999997e-01
3.231999873999999995e-01
3.219000101000000225e-01
3.204999863999999921e-01
3.190999924999999848e-01
3.176999985999999776e-01
3.163000047000000259e-01
3.156000078000000264e-01
3.149000108000000187e-01
3.143000007000000262e-01
3.136000037000000185e-01
3.129000068000000190e-01
3.120999931999999810e-01
3.113999962999999815e-01
3.106000125000000223e-01
3.098999857999999996e-01
