0 	168.892 	1.92449e-18 	-1.37551e-05
0.00400802 	169.904 	2.32949e-13 	-5.24389e-06
0.00801603 	170.497 	2.28306e-13 	-3.12188e-06
0.012024 	170.859 	2.22367e-13 	-1.84731e-06
0.0160321 	171.094 	2.14977e-13 	-9.49539e-07
0.0200401 	171.253 	2.06268e-13 	-2.67322e-07
0.0240481 	171.359 	2.01583e-13 	-7.23248e-08
0.0280561 	171.424 	1.91919e-13 	-1.16914e-07
0.0320641 	171.471 	1.90523e-13 	-2.91307e-07
0.0360721 	171.515 	2.47855e-13 	-4.64323e-07
0.0400802 	171.562 	2.8951e-13 	-3.2028e-07
0.0440882 	171.611 	3.18617e-13 	-6.25549e-08
0.0480962 	171.656 	2.91983e-13 	1.84161e-07
0.0521042 	171.694 	3.29749e-13 	2.93922e-07
0.0561122 	171.73 	3.16856e-13 	2.14435e-07
0.0601202 	171.767 	3.07426e-13 	-3.01621e-09
0.0641283 	171.808 	4.08444e-13 	-2.39362e-07
0.0681363 	171.855 	4.55203e-13 	-3.83963e-07
0.0721443 	171.907 	4.51671e-13 	-3.9849e-07
0.0761523 	171.962 	5.01351e-13 	-3.27779e-07
0.0801603 	172.018 	5.01088e-13 	-2.57204e-07
0.0841683 	172.072 	4.93602e-13 	-2.52127e-07
0.0881764 	172.125 	4.81435e-13 	-3.21252e-07
0.0921844 	172.176 	3.66972e-13 	-4.22026e-07
0.0961924 	172.225 	3.66972e-13 	-4.22026e-07
0.1002 	172.272 	3.81147e-13 	-4.94498e-07
0.104208 	172.317 	3.82821e-13 	-4.96264e-07
0.108216 	172.36 	3.76097e-13 	-4.17995e-07
0.112224 	172.4 	3.76097e-13 	-4.17995e-07
0.116232 	172.436 	3.64585e-13 	-2.77637e-07
0.12024 	172.469 	2.44054e-13 	-1.04056e-07
0.124248 	172.498 	2.44054e-13 	-1.04056e-07
0.128257 	172.523 	2.42104e-13 	7.577e-08
0.132265 	172.545 	3.39817e-13 	2.4044e-07
0.136273 	172.564 	3.39817e-13 	2.4044e-07
0.140281 	172.578 	3.04233e-13 	3.71762e-07
0.144289 	172.591 	2.77391e-13 	4.52404e-07
0.148297 	172.601 	2.77391e-13 	4.52404e-07
0.152305 	172.609 	2.58431e-13 	4.67826e-07
0.156313 	172.616 	2.43419e-13 	4.11248e-07
0.160321 	172.621 	2.43419e-13 	4.11248e-07
0.164329 	172.626 	2.30832e-13 	2.88301e-07
0.168337 	172.631 	2.30832e-13 	2.88301e-07
0.172345 	172.636 	2.18596e-13 	1.17974e-07
0.176353 	172.643 	2.07669e-13 	-7.21475e-08
0.180361 	172.651 	2.07669e-13 	-7.21475e-08
0.184369 	172.661 	1.97508e-13 	-2.55109e-07
0.188377 	172.673 	1.97508e-13 	-2.55109e-07
0.192385 	172.687 	1.8794e-13 	-3.81382e-07
0.196393 	172.702 	1.79648e-13 	-4.27093e-07
0.200401 	172.721 	1.79648e-13 	-4.27093e-07
0.204409 	172.743 	2.77795e-13 	-5.62413e-07
0.208417 	172.769 	2.77795e-13 	-5.62413e-07
0.212425 	172.798 	2.53299e-13 	-6.07669e-07
0.216433 	172.827 	2.53299e-13 	-6.07669e-07
0.220441 	172.859 	2.29685e-13 	-5.9984e-07
0.224449 	172.891 	2.1049e-13 	-5.68065e-07
0.228457 	172.926 	2.1049e-13 	-5.68065e-07
0.232465 	172.961 	1.94515e-13 	-5.33961e-07
0.236473 	172.996 	1.94515e-13 	-5.33961e-07
0.240481 	173.033 	1.80139e-13 	-5.13726e-07
0.244489 	173.07 	1.80139e-13 	-5.13726e-07
0.248497 	173.108 	1.6952e-13 	-5.14688e-07
0.252505 	173.146 	1.62224e-13 	-5.35753e-07
0.256513 	173.186 	1.62224e-13 	-5.35753e-07
0.260521 	173.227 	1.56675e-13 	-5.74128e-07
0.264529 	173.269 	1.56675e-13 	-5.74128e-07
0.268537 	173.312 	1.52217e-13 	-6.33136e-07
0.272545 	173.357 	1.52217e-13 	-6.33136e-07
0.276553 	173.405 	1.48533e-13 	-7.16469e-07
0.280561 	173.454 	2.47545e-13 	-8.07129e-07
0.284569 	173.507 	2.47545e-13 	-8.07129e-07
0.288577 	173.562 	2.0987e-13 	-8.87207e-07
0.292585 	173.621 	2.0987e-13 	-8.87207e-07
0.296593 	173.664 	2.91621e-13 	-1.33551e-06
0.300601 	173.699 	4.29986e-14 	2.76655e-06
0.304609 	173.628 	4.29986e-14 	2.76655e-06
0.308617 	173.503 	5.77317e-15 	4.93488e-06
0.312625 	173.284 	5.77317e-15 	4.93488e-06
0.316633 	172.96 	4.16909e-15 	7.6014e-06
0.320641 	172.58 	1.10332e-15 	8.78092e-06
0.324649 	172.074 	1.10331e-15 	8.78092e-06
0.328657 	171.497 	7.74329e-16 	1.02679e-05
0.332665 	170.862 	2.68824e-16 	1.17695e-05
0.336673 	170.111 	2.68815e-16 	1.17695e-05
0.340681 	169.301 	6.85497e-16 	1.31681e-05
0.344689 	168.43 	1.54038e-17 	1.45473e-05
0.348697 	167.44 	1.53926e-17 	1.45473e-05
0.352705 	166.382 	-1.26131e-16 	1.58822e-05
0.356713 	165.255 	-1.38402e-16 	1.71261e-05
0.360721 	164.029 	-1.38416e-16 	1.71261e-05
0.364729 	162.721 	-4.33826e-17 	1.82548e-05
0.368737 	161.347 	1.20965e-17 	1.92447e-05
0.372745 	159.906 	-3.35801e-16 	2.00943e-05
0.376754 	158.386 	-3.35818e-16 	2.00943e-05
0.380762 	156.803 	-2.63237e-16 	2.0804e-05
0.38477 	155.168 	-1.49117e-17 	2.13845e-05
0.388778 	153.483 	-1.05959e-16 	2.18414e-05
0.392786 	151.755 	2.69523e-16 	2.21903e-05
0.396794 	149.987 	1.71868e-16 	2.24338e-05
0.400802 	148.185 	1.71848e-16 	2.24338e-05
0.40481 	146.355 	-8.40334e-17 	2.2596e-05
0.408818 	144.505 	2.69944e-16 	2.26733e-05
0.412826 	142.641 	-1.27408e-16 	2.27016e-05
0.416834 	140.765 	-3.92987e-17 	2.26654e-05
0.420842 	138.884 	-2.11419e-16 	2.25137e-05
0.42485 	137 	2.97604e-17 	2.23925e-05
0.428858 	135.117 	-2.45224e-16 	2.23102e-05
0.432866 	133.238 	8.04762e-17 	2.20603e-05
0.436874 	131.363 	8.35104e-18 	2.20843e-05
0.440882 	129.474 	-1.66703e-18 	2.20986e-05
0.44489 	127.59 	-1.63597e-16 	2.18841e-05
0.448898 	125.725 	8.19157e-17 	2.16341e-05
0.452906 	123.882 	5.59423e-17 	2.13445e-05
0.456914 	122.065 	-5.69717e-17 	2.10038e-05
0.460922 	120.276 	1.48177e-17 	2.06138e-05
0.46493 	118.517 	3.06302e-17 	2.01673e-05
0.468938 	116.789 	-4.00923e-18 	1.96518e-05
0.472946 	115.09 	-1.28521e-16 	1.90704e-05
0.476954 	113.427 	-1.2854e-16 	1.90704e-05
0.480962 	111.803 	-1.18343e-16 	1.8422e-05
0.48497 	110.2 	-2.27891e-17 	1.76994e-05
0.488978 	108.649 	-2.28068e-17 	1.76994e-05
0.492986 	107.117 	-1.17495e-17 	1.69031e-05
0.496994 	105.632 	-1.17664e-17 	1.69031e-05
0.501002 	104.164 	1.8691e-16 	1.60385e-05
0.50501 	102.752 	1.86894e-16 	1.60385e-05
0.509018 	101.34 	1.86878e-16 	1.60385e-05
0.513026 	100 	-6.41909e-17 	1.51084e-05
0.517034 	98.6671 	-6.4206e-17 	1.51084e-05
0.521042 	97.359 	-4.20185e-17 	1.41201e-05
0.52505 	96.111 	-4.20327e-17 	1.41201e-05
0.529058 	94.8631 	-4.20469e-17 	1.41201e-05
0.533066 	93.6452 	4.9659e-17 	1.30871e-05
0.537074 	92.4866 	4.96459e-17 	1.30871e-05
0.541082 	91.328 	4.96327e-17 	1.30871e-05
0.54509 	90.1693 	4.96195e-17 	1.30871e-05
0.549098 	89.1028 	9.78457e-17 	1.20248e-05
0.553106 	88.0367 	9.78335e-17 	1.20248e-05
0.557114 	86.9706 	9.78214e-17 	1.20248e-05
0.561122 	85.9245 	-1.91521e-17 	1.09488e-05
0.56513 	84.9525 	-1.91632e-17 	1.09488e-05
0.569138 	83.9806 	-1.91742e-17 	1.09488e-05
0.573146 	83.0086 	-1.91852e-17 	1.09488e-05
0.577154 	82.0367 	-1.91963e-17 	1.09488e-05
0.581162 	81.1521 	-8.05879e-17 	9.87654e-06
0.58517 	80.2745 	-8.05978e-17 	9.87654e-06
0.589178 	79.3968 	-8.06078e-17 	9.87654e-06
0.593186 	78.5192 	-8.06178e-17 	9.87654e-06
0.597194 	77.6479 	-7.9694e-17 	8.82769e-06
0.601202 	76.8629 	-7.97029e-17 	8.82769e-06
0.60521 	76.0778 	-7.97118e-17 	8.82769e-06
0.609218 	75.2928 	-7.97207e-17 	8.82769e-06
0.613226 	74.5077 	-7.97296e-17 	8.82769e-06
0.617234 	73.7226 	-7.97386e-17 	8.82769e-06
0.621242 	72.9876 	-1.73925e-16 	7.81949e-06
0.625251 	72.2918 	-1.73933e-16 	7.81949e-06
0.629259 	71.5959 	-1.73941e-16 	7.81949e-06
0.633267 	70.9001 	-1.73949e-16 	7.81949e-06
0.637275 	70.2042 	-1.73957e-16 	7.81949e-06
0.641283 	69.5084 	-1.73965e-16 	7.81949e-06
0.645291 	68.8389 	5.28759e-17 	6.87141e-06
0.649299 	68.2271 	5.2869e-17 	6.87141e-06
0.653307 	67.6153 	5.2862e-17 	6.87141e-06
0.657315 	67.0035 	5.28551e-17 	6.87141e-06
0.661323 	66.3918 	5.28481e-17 	6.87141e-06
0.665331 	65.78 	5.28412e-17 	6.87141e-06
0.669339 	65.1682 	5.28342e-17 	6.87141e-06
0.673347 	64.5741 	-9.44911e-17 	5.98386e-06
0.677355 	64.0411 	-9.44971e-17 	5.98386e-06
0.681363 	63.508 	-9.45032e-17 	5.98386e-06
0.685371 	62.9749 	-9.45092e-17 	5.98386e-06
0.689379 	62.4418 	-9.45153e-17 	5.98386e-06
0.693387 	61.9088 	-9.45213e-17 	5.98386e-06
0.697395 	61.3757 	-9.45274e-17 	5.98386e-06
0.701403 	60.8426 	-9.45334e-17 	5.98386e-06
0.705411 	60.3231 	8.28481e-17 	5.14182e-06
0.709419 	59.8648 	8.28429e-17 	5.14182e-06
0.713427 	59.4065 	8.28377e-17 	5.14182e-06
0.717435 	58.9482 	8.28325e-17 	5.14182e-06
0.721443 	58.4899 	8.28273e-17 	5.14182e-06
0.725451 	58.0316 	8.2822e-17 	5.14182e-06
0.729459 	57.5733 	8.28168e-17 	5.14182e-06
0.733467 	57.115 	8.28116e-17 	5.14182e-06
0.737475 	56.6567 	8.28064e-17 	5.14182e-06
0.741483 	56.2021 	1.15969e-17 	4.3654e-06
0.745491 	55.8129 	1.15924e-17 	4.3654e-06
0.749499 	55.4237 	1.1588e-17 	4.3654e-06
0.753507 	55.0346 	1.15836e-17 	4.3654e-06
0.757515 	54.6454 	1.15792e-17 	4.3654e-06
0.761523 	54.2563 	1.15748e-17 	4.3654e-06
0.765531 	53.8671 	1.15703e-17 	4.3654e-06
0.769539 	53.478 	1.15659e-17 	4.3654e-06
0.773547 	53.0888 	1.15615e-17 	4.3654e-06
0.777555 	52.6997 	1.15571e-17 	4.3654e-06
0.781563 	52.3105 	1.15526e-17 	4.3654e-06
0.785571 	51.9637 	2.40052e-16 	3.67929e-06
0.789579 	51.6357 	2.40049e-16 	3.67929e-06
0.793587 	51.3077 	2.40045e-16 	3.67929e-06
0.797595 	50.9797 	2.40041e-16 	3.67929e-06
0.801603 	50.6517 	2.40038e-16 	3.67929e-06
0.805611 	50.3237 	2.40034e-16 	3.67929e-06
0.809619 	49.9956 	2.4003e-16 	3.67929e-06
0.813627 	49.6676 	2.40026e-16 	3.67929e-06
0.817635 	49.3396 	2.40023e-16 	3.67929e-06
0.821643 	49.0116 	2.40019e-16 	3.67929e-06
0.825651 	48.6836 	2.40015e-16 	3.67929e-06
0.829659 	48.3556 	2.40011e-16 	3.67929e-06
0.833667 	48.0775 	-4.7021e-17 	3.07815e-06
0.837675 	47.803 	-4.70241e-17 	3.07815e-06
0.841683 	47.5286 	-4.70272e-17 	3.07815e-06
0.845691 	47.2541 	-4.70304e-17 	3.07815e-06
0.849699 	46.9797 	-4.70335e-17 	3.07815e-06
0.853707 	46.7052 	-4.70366e-17 	3.07815e-06
0.857715 	46.4308 	-4.70397e-17 	3.07815e-06
0.861723 	46.1563 	-4.70428e-17 	3.07815e-06
0.865731 	45.8819 	-4.7046e-17 	3.07815e-06
0.869739 	45.6074 	-4.70491e-17 	3.07815e-06
0.873747 	45.333 	-4.70522e-17 	3.07815e-06
0.877756 	45.0585 	-4.70553e-17 	3.07815e-06
0.881764 	44.784 	-4.70584e-17 	3.07815e-06
0.885772 	44.537 	4.53219e-17 	2.54941e-06
0.88978 	44.3096 	4.53193e-17 	2.54941e-06
0.893788 	44.0823 	4.53167e-17 	2.54941e-06
0.897796 	43.8549 	4.53142e-17 	2.54941e-06
0.901804 	43.6276 	4.53116e-17 	2.54941e-06
0.905812 	43.4003 	4.5309e-17 	2.54941e-06
0.90982 	43.1729 	4.53064e-17 	2.54941e-06
0.913828 	42.9456 	4.53038e-17 	2.54941e-06
0.917836 	42.7182 	4.53012e-17 	2.54941e-06
0.921844 	42.4909 	4.52987e-17 	2.54941e-06
0.925852 	42.2635 	4.52961e-17 	2.54941e-06
0.92986 	42.0362 	4.52935e-17 	2.54941e-06
0.933868 	41.8088 	4.52909e-17 	2.54941e-06
0.937876 	41.5815 	4.52883e-17 	2.54941e-06
0.941884 	41.3541 	4.52857e-17 	2.54941e-06
0.945892 	41.1444 	7.40646e-18 	2.08409e-06
0.9499 	40.9585 	7.40435e-18 	2.08409e-06
0.953908 	40.7726 	7.40224e-18 	2.08409e-06
0.957916 	40.5867 	7.40012e-18 	2.08409e-06
0.961924 	40.4008 	7.39801e-18 	2.08409e-06
0.965932 	40.2149 	7.3959e-18 	2.08409e-06
0.96994 	40.029 	7.39379e-18 	2.08409e-06
0.973948 	39.8431 	7.39168e-18 	2.08409e-06
0.977956 	39.6572 	7.38956e-18 	2.08409e-06
0.981964 	39.4713 	7.38745e-18 	2.08409e-06
0.985972 	39.2854 	7.38534e-18 	2.08409e-06
0.98998 	39.0995 	7.38323e-18 	2.08409e-06
0.993988 	38.9137 	7.38111e-18 	2.08409e-06
0.997996 	38.7278 	7.379e-18 	2.08409e-06
1.002 	38.5419 	7.37689e-18 	2.08409e-06
1.00601 	38.356 	7.37478e-18 	2.08409e-06
1.01002 	38.1701 	7.37267e-18 	2.08409e-06
1.01403 	37.9921 	-1.32803e-16 	1.67868e-06
1.01804 	37.8423 	-1.32805e-16 	1.67868e-06
1.02204 	37.6925 	-1.32806e-16 	1.67868e-06
1.02605 	37.5427 	-1.32808e-16 	1.67868e-06
1.03006 	37.3929 	-1.3281e-16 	1.67868e-06
1.03407 	37.2432 	-1.32811e-16 	1.67868e-06
1.03808 	37.0934 	-1.32813e-16 	1.67868e-06
1.04208 	36.9436 	-1.32815e-16 	1.67868e-06
1.04609 	36.7938 	-1.32817e-16 	1.67868e-06
1.0501 	36.6441 	-1.32818e-16 	1.67868e-06
1.05411 	36.4943 	-1.3282e-16 	1.67868e-06
1.05812 	36.3445 	-1.32822e-16 	1.67868e-06
1.06212 	36.1947 	-1.32823e-16 	1.67868e-06
1.06613 	36.0449 	-1.32825e-16 	1.67868e-06
1.07014 	35.8952 	-1.32827e-16 	1.67868e-06
1.07415 	35.7454 	-1.32828e-16 	1.67868e-06
1.07816 	35.5956 	-1.3283e-16 	1.67868e-06
1.08216 	35.4458 	-1.32832e-16 	1.67868e-06
1.08617 	35.2961 	-1.32834e-16 	1.67868e-06
1.09018 	35.1463 	-1.32835e-16 	1.67868e-06
1.09419 	35.0176 	6.21149e-17 	1.33161e-06
1.0982 	34.8987 	6.21136e-17 	1.33161e-06
1.1022 	34.7799 	6.21122e-17 	1.33161e-06
1.10621 	34.661 	6.21109e-17 	1.33161e-06
1.11022 	34.5422 	6.21095e-17 	1.33161e-06
1.11423 	34.4233 	6.21082e-17 	1.33161e-06
1.11824 	34.3044 	6.21068e-17 	1.33161e-06
1.12224 	34.1856 	6.21055e-17 	1.33161e-06
1.12625 	34.0667 	6.21041e-17 	1.33161e-06
1.13026 	33.9479 	6.21028e-17 	1.33161e-06
1.13427 	33.829 	6.21014e-17 	1.33161e-06
1.13828 	33.7102 	6.21001e-17 	1.33161e-06
1.14228 	33.5913 	6.20987e-17 	1.33161e-06
1.14629 	33.4724 	6.20974e-17 	1.33161e-06
1.1503 	33.3536 	6.2096e-17 	1.33161e-06
1.15431 	33.2347 	6.20947e-17 	1.33161e-06
1.15832 	33.1159 	6.20933e-17 	1.33161e-06
1.16232 	32.997 	6.2092e-17 	1.33161e-06
1.16633 	32.8781 	6.20906e-17 	1.33161e-06
1.17034 	32.7593 	6.20892e-17 	1.33161e-06
1.17435 	32.6404 	6.20879e-17 	1.33161e-06
1.17836 	32.5216 	6.20865e-17 	1.33161e-06
1.18236 	32.4157 	2.25922e-17 	1.04159e-06
1.18637 	32.3227 	2.25911e-17 	1.04159e-06
1.19038 	32.2297 	2.259e-17 	1.04159e-06
1.19439 	32.1367 	2.2589e-17 	1.04159e-06
1.1984 	32.0437 	2.25879e-17 	1.04159e-06
1.2024 	31.9507 	2.25869e-17 	1.04159e-06
1.20641 	31.8576 	2.25858e-17 	1.04159e-06
1.21042 	31.7646 	2.25848e-17 	1.04159e-06
1.21443 	31.6716 	2.25837e-17 	1.04159e-06
1.21844 	31.5786 	2.25826e-17 	1.04159e-06
1.22244 	31.4856 	2.25816e-17 	1.04159e-06
1.22645 	31.3926 	2.25805e-17 	1.04159e-06
1.23046 	31.2996 	2.25795e-17 	1.04159e-06
1.23447 	31.2066 	2.25784e-17 	1.04159e-06
1.23848 	31.1136 	2.25774e-17 	1.04159e-06
1.24248 	31.0206 	2.25763e-17 	1.04159e-06
1.24649 	30.9276 	2.25752e-17 	1.04159e-06
1.2505 	30.8346 	2.25742e-17 	1.04159e-06
1.25451 	30.7416 	2.25731e-17 	1.04159e-06
1.25852 	30.6486 	2.25721e-17 	1.04159e-06
1.26253 	30.5555 	2.2571e-17 	1.04159e-06
1.26653 	30.4625 	2.257e-17 	1.04159e-06
1.27054 	30.3695 	2.25689e-17 	1.04159e-06
1.27455 	30.2765 	2.25679e-17 	1.04159e-06
1.27856 	30.1835 	2.25668e-17 	1.04159e-06
1.28257 	30.0973 	1.42187e-16 	8.01168e-07
1.28657 	30.0257 	1.42186e-16 	8.01168e-07
1.29058 	29.9541 	1.42185e-16 	8.01168e-07
1.29459 	29.8825 	1.42184e-16 	8.01168e-07
1.2986 	29.8109 	1.42183e-16 	8.01168e-07
1.30261 	29.7393 	1.42182e-16 	8.01168e-07
1.30661 	29.6678 	1.42182e-16 	8.01168e-07
1.31062 	29.5962 	1.42181e-16 	8.01168e-07
1.31463 	29.5246 	1.4218e-16 	8.01168e-07
1.31864 	29.453 	1.42179e-16 	8.01168e-07
1.32265 	29.3814 	1.42178e-16 	8.01168e-07
1.32665 	29.3098 	1.42178e-16 	8.01168e-07
1.33066 	29.2382 	1.42177e-16 	8.01168e-07
1.33467 	29.1666 	1.42176e-16 	8.01168e-07
1.33868 	29.095 	1.42175e-16 	8.01168e-07
1.34269 	29.0234 	1.42174e-16 	8.01168e-07
1.34669 	28.9518 	1.42173e-16 	8.01168e-07
1.3507 	28.8802 	1.42173e-16 	8.01168e-07
1.35471 	28.8086 	1.42172e-16 	8.01168e-07
1.35872 	28.737 	1.42171e-16 	8.01168e-07
1.36273 	28.6654 	1.4217e-16 	8.01168e-07
1.36673 	28.5938 	1.42169e-16 	8.01168e-07
1.37074 	28.5222 	1.42169e-16 	8.01168e-07
1.37475 	28.4506 	1.42168e-16 	8.01168e-07
1.37876 	28.379 	1.42167e-16 	8.01168e-07
1.38277 	28.3075 	1.42166e-16 	8.01168e-07
1.38677 	28.2359 	1.42165e-16 	8.01168e-07
1.39078 	28.1643 	1.42165e-16 	8.01168e-07
1.39479 	28.0927 	1.42164e-16 	8.01168e-07
1.3988 	28.0334 	-1.78132e-17 	6.10983e-07
1.40281 	27.9788 	-1.78138e-17 	6.10983e-07
1.40681 	27.9242 	-1.78144e-17 	6.10983e-07
1.41082 	27.8696 	-1.7815e-17 	6.10983e-07
1.41483 	27.815 	-1.78157e-17 	6.10983e-07
1.41884 	27.7604 	-1.78163e-17 	6.10983e-07
1.42285 	27.7058 	-1.78169e-17 	6.10983e-07
1.42685 	27.6512 	-1.78175e-17 	6.10983e-07
1.43086 	27.5966 	-1.78181e-17 	6.10983e-07
1.43487 	27.542 	-1.78188e-17 	6.10983e-07
1.43888 	27.4874 	-1.78194e-17 	6.10983e-07
1.44289 	27.4328 	-1.782e-17 	6.10983e-07
1.44689 	27.3782 	-1.78206e-17 	6.10983e-07
1.4509 	27.3236 	-1.78212e-17 	6.10983e-07
1.45491 	27.269 	-1.78219e-17 	6.10983e-07
1.45892 	27.2144 	-1.78225e-17 	6.10983e-07
1.46293 	27.1598 	-1.78231e-17 	6.10983e-07
1.46693 	27.1052 	-1.78237e-17 	6.10983e-07
1.47094 	27.0506 	-1.78244e-17 	6.10983e-07
1.47495 	26.996 	-1.7825e-17 	6.10983e-07
1.47896 	26.9414 	-1.78256e-17 	6.10983e-07
1.48297 	26.8868 	-1.78262e-17 	6.10983e-07
1.48697 	26.8322 	-1.78268e-17 	6.10983e-07
1.49098 	26.7776 	-1.78275e-17 	6.10983e-07
1.49499 	26.723 	-1.78281e-17 	6.10983e-07
1.499 	26.6683 	-1.78287e-17 	6.10983e-07
1.50301 	26.6137 	-1.78293e-17 	6.10983e-07
1.50701 	26.5591 	-1.78299e-17 	6.10983e-07
1.51102 	26.5045 	-1.78306e-17 	6.10983e-07
1.51503 	26.4499 	-1.78312e-17 	6.10983e-07
1.51904 	26.3953 	-1.78318e-17 	6.10983e-07
1.52305 	26.3407 	-1.78324e-17 	6.10983e-07
1.52705 	26.2899 	1.36761e-16 	4.48325e-07
1.53106 	26.2497 	1.36761e-16 	4.48325e-07
1.53507 	26.2095 	1.3676e-16 	4.48325e-07
1.53908 	26.1693 	1.3676e-16 	4.48325e-07
1.54309 	26.1291 	1.36759e-16 	4.48325e-07
1.54709 	26.0889 	1.36759e-16 	4.48325e-07
1.5511 	26.0487 	1.36759e-16 	4.48325e-07
1.55511 	26.0085 	1.36758e-16 	4.48325e-07
1.55912 	25.9683 	1.36758e-16 	4.48325e-07
1.56313 	25.9281 	1.36757e-16 	4.48325e-07
1.56713 	25.8879 	1.36757e-16 	4.48325e-07
1.57114 	25.8478 	1.36756e-16 	4.48325e-07
1.57515 	25.8076 	1.36756e-16 	4.48325e-07
1.57916 	25.7674 	1.36755e-16 	4.48325e-07
1.58317 	25.7272 	1.36755e-16 	4.48325e-07
1.58717 	25.687 	1.36754e-16 	4.48325e-07
1.59118 	25.6468 	1.36754e-16 	4.48325e-07
1.59519 	25.6066 	1.36754e-16 	4.48325e-07
1.5992 	25.5664 	1.36753e-16 	4.48325e-07
1.60321 	25.5262 	1.36753e-16 	4.48325e-07
1.60721 	25.486 	1.36752e-16 	4.48325e-07
1.61122 	25.4458 	1.36752e-16 	4.48325e-07
1.61523 	25.4057 	1.36751e-16 	4.48325e-07
1.61924 	25.3655 	1.36751e-16 	4.48325e-07
1.62325 	25.3253 	1.3675e-16 	4.48325e-07
1.62725 	25.2851 	1.3675e-16 	4.48325e-07
1.63126 	25.2449 	1.36749e-16 	4.48325e-07
1.63527 	25.2047 	1.36749e-16 	4.48325e-07
1.63928 	25.1645 	1.36749e-16 	4.48325e-07
1.64329 	25.1243 	1.36748e-16 	4.48325e-07
1.64729 	25.0841 	1.36748e-16 	4.48325e-07
1.6513 	25.0439 	1.36747e-16 	4.48325e-07
1.65531 	25.0037 	1.36747e-16 	4.48325e-07
1.65932 	24.9635 	1.36746e-16 	4.48325e-07
1.66333 	24.9234 	1.36746e-16 	4.48325e-07
1.66733 	24.8832 	1.36745e-16 	4.48325e-07
1.67134 	24.843 	1.36745e-16 	4.48325e-07
1.67535 	24.8063 	-1.35986e-16 	3.51275e-07
1.67936 	24.7751 	-1.35987e-16 	3.51275e-07
1.68337 	24.7438 	-1.35987e-16 	3.51275e-07
1.68737 	24.7126 	-1.35987e-16 	3.51275e-07
1.69138 	24.6813 	-1.35988e-16 	3.51275e-07
1.69539 	24.65 	-1.35988e-16 	3.51275e-07
1.6994 	24.6188 	-1.35989e-16 	3.51275e-07
1.70341 	24.5875 	-1.35989e-16 	3.51275e-07
1.70741 	24.5562 	-1.35989e-16 	3.51275e-07
1.71142 	24.525 	-1.3599e-16 	3.51275e-07
1.71543 	24.4937 	-1.3599e-16 	3.51275e-07
1.71944 	24.4624 	-1.3599e-16 	3.51275e-07
1.72345 	24.4312 	-1.35991e-16 	3.51275e-07
1.72745 	24.3999 	-1.35991e-16 	3.51275e-07
1.73146 	24.3686 	-1.35991e-16 	3.51275e-07
1.73547 	24.3374 	-1.35992e-16 	3.51275e-07
1.73948 	24.3061 	-1.35992e-16 	3.51275e-07
1.74349 	24.2748 	-1.35992e-16 	3.51275e-07
1.74749 	24.2436 	-1.35993e-16 	3.51275e-07
1.7515 	24.2123 	-1.35993e-16 	3.51275e-07
1.75551 	24.1811 	-1.35994e-16 	3.51275e-07
1.75952 	24.1498 	-1.35994e-16 	3.51275e-07
1.76353 	24.1185 	-1.35994e-16 	3.51275e-07
1.76754 	24.0873 	-1.35995e-16 	3.51275e-07
1.77154 	24.056 	-1.35995e-16 	3.51275e-07
1.77555 	24.0247 	-1.35995e-16 	3.51275e-07
1.77956 	23.9935 	-1.35996e-16 	3.51275e-07
1.78357 	23.9622 	-1.35996e-16 	3.51275e-07
1.78758 	23.9309 	-1.35996e-16 	3.51275e-07
1.79158 	23.8997 	-1.35997e-16 	3.51275e-07
1.79559 	23.8684 	-1.35997e-16 	3.51275e-07
1.7996 	23.8371 	-1.35997e-16 	3.51275e-07
1.80361 	23.8059 	-1.35998e-16 	3.51275e-07
1.80762 	23.7746 	-1.35998e-16 	3.51275e-07
1.81162 	23.7434 	-1.35998e-16 	3.51275e-07
1.81563 	23.7121 	-1.35999e-16 	3.51275e-07
1.81964 	23.6808 	-1.35999e-16 	3.51275e-07
1.82365 	23.6496 	-1.36e-16 	3.51275e-07
1.82766 	23.6183 	-1.36e-16 	3.51275e-07
1.83166 	23.587 	-1.36e-16 	3.51275e-07
1.83567 	23.5558 	-1.36001e-16 	3.51275e-07
1.83968 	23.5245 	-1.36001e-16 	3.51275e-07
1.84369 	23.502 	-9.94172e-17 	1.58241e-07
1.8477 	23.487 	-9.94174e-17 	1.58241e-07
1.8517 	23.472 	-9.94176e-17 	1.58241e-07
1.85571 	23.4571 	-9.94177e-17 	1.58241e-07
1.85972 	23.4421 	-9.94179e-17 	1.58241e-07
1.86373 	23.4271 	-9.94181e-17 	1.58241e-07
1.86774 	23.4122 	-9.94183e-17 	1.58241e-07
1.87174 	23.3972 	-9.94184e-17 	1.58241e-07
1.87575 	23.3822 	-9.94186e-17 	1.58241e-07
1.87976 	23.3673 	-9.94188e-17 	1.58241e-07
1.88377 	23.3523 	-9.94189e-17 	1.58241e-07
1.88778 	23.3373 	-9.94191e-17 	1.58241e-07
1.89178 	23.3224 	-9.94193e-17 	1.58241e-07
1.89579 	23.3074 	-9.94194e-17 	1.58241e-07
1.8998 	23.2924 	-9.94196e-17 	1.58241e-07
1.90381 	23.2774 	-9.94198e-17 	1.58241e-07
1.90782 	23.2625 	-9.942e-17 	1.58241e-07
1.91182 	23.2475 	-9.94201e-17 	1.58241e-07
1.91583 	23.2325 	-9.94203e-17 	1.58241e-07
1.91984 	23.2176 	-9.94205e-17 	1.58241e-07
1.92385 	23.2026 	-9.94206e-17 	1.58241e-07
1.92786 	23.1876 	-9.94208e-17 	1.58241e-07
1.93186 	23.1727 	-9.9421e-17 	1.58241e-07
1.93587 	23.1577 	-9.94211e-17 	1.58241e-07
1.93988 	23.1427 	-9.94213e-17 	1.58241e-07
1.94389 	23.1278 	-9.94215e-17 	1.58241e-07
1.9479 	23.1128 	-9.94217e-17 	1.58241e-07
1.9519 	23.0978 	-9.94218e-17 	1.58241e-07
1.95591 	23.0829 	-9.9422e-17 	1.58241e-07
1.95992 	23.0679 	-9.94222e-17 	1.58241e-07
1.96393 	23.0529 	-9.94223e-17 	1.58241e-07
1.96794 	23.038 	-9.94225e-17 	1.58241e-07
1.97194 	23.023 	-9.94227e-17 	1.58241e-07
1.97595 	23.008 	-9.94228e-17 	1.58241e-07
1.97996 	22.9931 	-9.9423e-17 	1.58241e-07
1.98397 	22.9781 	-9.94232e-17 	1.58241e-07
1.98798 	22.9631 	-9.94234e-17 	1.58241e-07
1.99198 	22.9482 	-9.94235e-17 	1.58241e-07
1.99599 	22.9332 	-9.94237e-17 	1.58241e-07
2 	22.9182 	-9.94239e-17 	1.58241e-07
