/*--------------------------------*- C++ -*----------------------------------*\
| =========                 |                                                 |
| \\      /  F ield         | OpenFOAM: The Open Source CFD Toolbox           |
|  \\    /   O peration     | Version:  2212                                  |
|   \\  /    A nd           | Website:  www.openfoam.com                      |
|    \\/     M anipulation  |                                                 |
\*---------------------------------------------------------------------------*/
FoamFile
{
    version     2.0;
    format      ascii;
    arch        "LSB;label=32;scalar=64";
    class       volVectorField;
    location    "0";
    object      C;
}
// * * * * * * * * * * * * * * * * * * * * * * * * * * * * * * * * * * * * * //

dimensions      [0 1 0 0 0 0 0];

internalField   nonuniform List<vector> 
10368
(
(-0.852066 6.75187e-06 0.084)
(-0.758669 6.75187e-06 0.084)
(-0.666528 6.75186e-06 0.084)
(-0.577756 6.75186e-06 0.084)
(-0.494163 6.75186e-06 0.084)
(-0.417125 6.75186e-06 0.084)
(-0.347529 6.75186e-06 0.084)
(-0.28578 6.75186e-06 0.084)
(-0.231864 6.75186e-06 0.084)
(-0.185445 6.75186e-06 0.084)
(-0.145961 6.75187e-06 0.084)
(-0.112722 6.75187e-06 0.084)
(-0.0849823 6.75187e-06 0.084)
(-0.0620005 6.75188e-06 0.084)
(-0.0430752 6.75189e-06 0.084)
(-0.0275679 6.75168e-06 0.084)
(-0.014916 6.74118e-06 0.084)
(-0.00462519 6.71067e-06 0.084)
(0.00418428 0.000770902 0.084)
(0.0125194 0.0031626 0.084)
(0.0206799 0.00703707 0.084)
(0.0287203 0.0118353 0.084)
(0.0368934 0.0169555 0.084)
(0.0454791 0.0218388 0.084)
(0.054565 0.0261941 0.084)
(0.0640218 0.030106 0.084)
(0.0737353 0.0336532 0.084)
(0.0836515 0.0367839 0.084)
(0.0936988 0.0394984 0.084)
(0.103793 0.0418588 0.084)
(0.113858 0.0439237 0.084)
(0.12383 0.0457357 0.084)
(0.133653 0.0473261 0.084)
(0.143278 0.048714 0.084)
(0.152664 0.0499077 0.084)
(0.161772 0.0509152 0.084)
(0.170571 0.0517473 0.084)
(0.179034 0.0524165 0.084)
(0.187139 0.0529348 0.084)
(0.194871 0.0533147 0.084)
(0.202219 0.0535672 0.084)
(0.209176 0.0537063 0.084)
(0.21574 0.053747 0.084)
(0.221914 0.0537008 0.084)
(0.227703 0.0535794 0.084)
(0.233115 0.053392 0.084)
(0.238161 0.0531487 0.084)
(0.242854 0.0528564 0.084)
(0.247208 0.0525204 0.084)
(0.251239 0.0521502 0.084)
(0.254962 0.0517543 0.084)
(0.258394 0.0513391 0.084)
(0.261552 0.0509078 0.084)
(0.264453 0.0504604 0.084)
(0.267111 0.0500014 0.084)
(0.269545 0.0495393 0.084)
(0.271767 0.0490693 0.084)
(0.273787 0.0485705 0.084)
(0.275656 0.0480103 0.084)
(0.27745 0.0473503 0.084)
(0.279193 0.0465648 0.084)
(0.28087 0.0456488 0.084)
(0.282485 0.0446242 0.084)
(0.284049 0.0435231 0.084)
(0.285574 0.0423668 0.084)
(0.287068 0.0411713 0.084)
(0.288542 0.0399504 0.084)
(0.290004 0.0387153 0.084)
(0.291461 0.0374726 0.084)
(0.292917 0.0362293 0.084)
(0.294381 0.0349942 0.084)
(0.295853 0.0337689 0.084)
(0.29733 0.0325488 0.084)
(0.298811 0.031333 0.084)
(0.3003 0.0301258 0.084)
(0.301801 0.0289331 0.084)
(0.303318 0.02776 0.084)
(0.304851 0.0266081 0.084)
(0.306401 0.0254766 0.084)
(0.307966 0.0243651 0.084)
(0.309546 0.0232753 0.084)
(0.311144 0.0222099 0.084)
(0.312761 0.0211712 0.084)
(0.314396 0.0201607 0.084)
(0.316049 0.0191797 0.084)
(0.317722 0.0182293 0.084)
(0.319413 0.0173105 0.084)
(0.321122 0.0164242 0.084)
(0.322849 0.0155712 0.084)
(0.324593 0.0147524 0.084)
(0.326355 0.0139684 0.084)
(0.328132 0.0132187 0.084)
(0.329924 0.0125029 0.084)
(0.33173 0.0118198 0.084)
(0.333549 0.0111678 0.084)
(0.33538 0.0105461 0.084)
(0.337221 0.00995437 0.084)
(0.339073 0.00939152 0.084)
(0.340934 0.00885597 0.084)
(0.342804 0.00834545 0.084)
(0.344681 0.00785863 0.084)
(0.346565 0.00739485 0.084)
(0.348456 0.00695298 0.084)
(0.350353 0.00653175 0.084)
(0.352256 0.00612938 0.084)
(0.354164 0.00574399 0.084)
(0.356076 0.005374 0.084)
(0.357992 0.00501825 0.084)
(0.359912 0.00467611 0.084)
(0.361836 0.00434706 0.084)
(0.363764 0.00403037 0.084)
(0.365695 0.00372528 0.084)
(0.36763 0.00343079 0.084)
(0.369568 0.00314598 0.084)
(0.371508 0.00287029 0.084)
(0.373452 0.00260353 0.084)
(0.375399 0.00234611 0.084)
(0.377349 0.00209866 0.084)
(0.379302 0.00186146 0.084)
(0.381258 0.0016345 0.084)
(0.383217 0.00141841 0.084)
(0.38518 0.00121481 0.084)
(0.387146 0.00102564 0.084)
(0.389115 0.000852464 0.084)
(0.391088 0.000696772 0.084)
(0.393064 0.000560043 0.084)
(0.395044 0.000443486 0.084)
(0.397027 0.000347608 0.084)
(0.399013 0.000272051 0.084)
(0.401002 0.000215937 0.084)
(0.402993 0.00017744 0.084)
(0.404987 0.000152429 0.084)
(0.406983 0.000133775 0.084)
(0.408982 0.000115779 0.084)
(0.410983 9.74097e-05 0.084)
(0.412986 7.88316e-05 0.084)
(0.414992 5.76038e-05 0.084)
(0.417 3.27495e-05 0.084)
(0.41901 1.31411e-05 0.084)
(0.421024 6.61014e-06 0.084)
(0.423049 6.61014e-06 0.084)
(0.425097 6.61014e-06 0.084)
(0.427185 6.61014e-06 0.084)
(0.42933 6.61014e-06 0.084)
(0.431549 6.61014e-06 0.084)
(0.433859 6.61014e-06 0.084)
(0.436278 6.61013e-06 0.084)
(0.438827 6.61013e-06 0.084)
(0.441523 6.61013e-06 0.084)
(0.44439 6.61013e-06 0.084)
(0.44745 6.61012e-06 0.084)
(0.450727 6.61012e-06 0.084)
(0.454247 6.61132e-06 0.084)
(0.458038 6.62145e-06 0.084)
(0.46213 6.64613e-06 0.084)
(0.466554 6.68062e-06 0.084)
(0.471346 6.71613e-06 0.084)
(0.476544 6.74198e-06 0.084)
(0.482188 6.75147e-06 0.084)
(0.488325 6.75189e-06 0.084)
(0.495002 6.75188e-06 0.084)
(0.502272 6.75188e-06 0.084)
(0.510193 6.75188e-06 0.084)
(0.518827 6.75188e-06 0.084)
(0.528243 6.75188e-06 0.084)
(0.538515 6.75187e-06 0.084)
(0.549724 6.75187e-06 0.084)
(0.561959 6.75187e-06 0.084)
(0.575316 6.75187e-06 0.084)
(0.589902 6.75187e-06 0.084)
(0.605831 6.75187e-06 0.084)
(0.623231 6.75187e-06 0.084)
(0.642237 6.75187e-06 0.084)
(0.663001 6.75186e-06 0.084)
(0.685687 6.75186e-06 0.084)
(0.710475 6.75186e-06 0.084)
(0.737559 6.75186e-06 0.084)
(0.767155 6.75186e-06 0.084)
(0.799497 6.75186e-06 0.084)
(0.834841 6.75186e-06 0.084)
(0.873465 6.75186e-06 0.084)
(0.915676 6.75186e-06 0.084)
(0.961807 6.75186e-06 0.084)
(1.01222 6.75186e-06 0.084)
(1.06732 6.75186e-06 0.084)
(1.12754 6.75186e-06 0.084)
(1.19336 6.75186e-06 0.084)
(1.26529 6.75186e-06 0.084)
(1.34391 6.75187e-06 0.084)
(1.42984 6.75187e-06 0.084)
(1.52375 6.75187e-06 0.084)
(1.6264 6.75187e-06 0.084)
(-0.852066 2.0451e-05 0.084)
(-0.75867 2.0451e-05 0.084)
(-0.66653 2.0451e-05 0.084)
(-0.577759 2.0451e-05 0.084)
(-0.494166 2.0451e-05 0.084)
(-0.41713 2.0451e-05 0.084)
(-0.347535 2.0451e-05 0.084)
(-0.285786 2.0451e-05 0.084)
(-0.231871 2.0451e-05 0.084)
(-0.185452 2.0451e-05 0.084)
(-0.145968 2.0451e-05 0.084)
(-0.112729 2.0451e-05 0.084)
(-0.0849898 2.0451e-05 0.084)
(-0.0620079 2.0451e-05 0.084)
(-0.0430824 2.0451e-05 0.084)
(-0.027575 2.04504e-05 0.084)
(-0.0149227 2.04186e-05 0.084)
(-0.00463158 2.03261e-05 0.084)
(0.00417824 0.000784406 0.084)
(0.0125137 0.00317594 0.084)
(0.0206745 0.00705024 0.084)
(0.0287152 0.0118483 0.084)
(0.0368886 0.0169683 0.084)
(0.0454745 0.0218515 0.084)
(0.0545605 0.0262066 0.084)
(0.0640175 0.0301183 0.084)
(0.0737312 0.0336654 0.084)
(0.0836475 0.036796 0.084)
(0.0936949 0.0395104 0.084)
(0.103789 0.0418707 0.084)
(0.113854 0.0439356 0.084)
(0.123826 0.0457475 0.084)
(0.133649 0.0473378 0.084)
(0.143275 0.0487256 0.084)
(0.15266 0.0499193 0.084)
(0.161769 0.0509268 0.084)
(0.170568 0.0517589 0.084)
(0.179031 0.052428 0.084)
(0.187136 0.0529464 0.084)
(0.194868 0.0533263 0.084)
(0.202216 0.0535787 0.084)
(0.209173 0.0537178 0.084)
(0.215737 0.0537586 0.084)
(0.221911 0.0537123 0.084)
(0.2277 0.0535909 0.084)
(0.233112 0.0534036 0.084)
(0.238159 0.0531603 0.084)
(0.242852 0.052868 0.084)
(0.247206 0.052532 0.084)
(0.251237 0.0521617 0.084)
(0.25496 0.0517659 0.084)
(0.258393 0.0513507 0.084)
(0.261551 0.0509194 0.084)
(0.264452 0.050472 0.084)
(0.26711 0.050013 0.084)
(0.269544 0.049551 0.084)
(0.271767 0.049081 0.084)
(0.273787 0.0485822 0.084)
(0.275656 0.048022 0.084)
(0.277451 0.047362 0.084)
(0.279194 0.0465765 0.084)
(0.280871 0.0456606 0.084)
(0.282486 0.044636 0.084)
(0.284051 0.043535 0.084)
(0.285575 0.0423787 0.084)
(0.287069 0.0411832 0.084)
(0.288544 0.0399624 0.084)
(0.290006 0.0387273 0.084)
(0.291462 0.0374846 0.084)
(0.292919 0.0362415 0.084)
(0.294382 0.0350064 0.084)
(0.295855 0.0337811 0.084)
(0.297332 0.0325611 0.084)
(0.298813 0.0313453 0.084)
(0.300302 0.0301381 0.084)
(0.301803 0.0289455 0.084)
(0.30332 0.0277724 0.084)
(0.304854 0.0266205 0.084)
(0.306403 0.0254891 0.084)
(0.307968 0.0243777 0.084)
(0.309549 0.0232878 0.084)
(0.311147 0.0222225 0.084)
(0.312763 0.0211838 0.084)
(0.314398 0.0201734 0.084)
(0.316052 0.0191924 0.084)
(0.317724 0.0182421 0.084)
(0.319415 0.0173233 0.084)
(0.321125 0.0164371 0.084)
(0.322851 0.0155841 0.084)
(0.324596 0.0147653 0.084)
(0.326357 0.0139813 0.084)
(0.328135 0.0132316 0.084)
(0.329927 0.0125158 0.084)
(0.331733 0.0118328 0.084)
(0.333552 0.0111808 0.084)
(0.335383 0.0105591 0.084)
(0.337224 0.00996743 0.084)
(0.339076 0.00940459 0.084)
(0.340938 0.00886906 0.084)
(0.342807 0.00835856 0.084)
(0.344684 0.00787176 0.084)
(0.346569 0.007408 0.084)
(0.34846 0.00696615 0.084)
(0.350357 0.00654493 0.084)
(0.352259 0.00614257 0.084)
(0.354167 0.0057572 0.084)
(0.356079 0.00538722 0.084)
(0.357995 0.00503148 0.084)
(0.359916 0.00468936 0.084)
(0.36184 0.00436031 0.084)
(0.363768 0.00404363 0.084)
(0.365699 0.00373855 0.084)
(0.367634 0.00344407 0.084)
(0.369571 0.00315927 0.084)
(0.371512 0.0028836 0.084)
(0.373456 0.00261685 0.084)
(0.375403 0.00235944 0.084)
(0.377353 0.00211199 0.084)
(0.379306 0.00187481 0.084)
(0.381262 0.00164785 0.084)
(0.383221 0.00143177 0.084)
(0.385184 0.00122818 0.084)
(0.38715 0.00103902 0.084)
(0.389119 0.000865845 0.084)
(0.391092 0.000710158 0.084)
(0.393069 0.000573435 0.084)
(0.395048 0.000456882 0.084)
(0.397031 0.000361007 0.084)
(0.399017 0.000285453 0.084)
(0.401006 0.000229341 0.084)
(0.402998 0.000190845 0.084)
(0.404992 0.000165836 0.084)
(0.406988 0.000147182 0.084)
(0.408987 0.000129186 0.084)
(0.410988 0.000110818 0.084)
(0.412991 9.22404e-05 0.084)
(0.414997 7.10134e-05 0.084)
(0.417005 4.616e-05 0.084)
(0.419016 2.65523e-05 0.084)
(0.42103 2.00216e-05 0.084)
(0.423054 2.00216e-05 0.084)
(0.425103 2.00216e-05 0.084)
(0.427191 2.00216e-05 0.084)
(0.429336 2.00216e-05 0.084)
(0.431555 2.00216e-05 0.084)
(0.433865 2.00216e-05 0.084)
(0.436285 2.00216e-05 0.084)
(0.438833 2.00216e-05 0.084)
(0.44153 2.00216e-05 0.084)
(0.444397 2.00216e-05 0.084)
(0.447457 2.00216e-05 0.084)
(0.450734 2.00216e-05 0.084)
(0.454254 2.00252e-05 0.084)
(0.458045 2.00559e-05 0.084)
(0.462137 2.01307e-05 0.084)
(0.466561 2.02352e-05 0.084)
(0.471354 2.03427e-05 0.084)
(0.476551 2.0421e-05 0.084)
(0.482195 2.04497e-05 0.084)
(0.488332 2.0451e-05 0.084)
(0.49501 2.0451e-05 0.084)
(0.50228 2.0451e-05 0.084)
(0.510201 2.0451e-05 0.084)
(0.518835 2.0451e-05 0.084)
(0.528251 2.0451e-05 0.084)
(0.538523 2.0451e-05 0.084)
(0.549732 2.0451e-05 0.084)
(0.561967 2.0451e-05 0.084)
(0.575324 2.0451e-05 0.084)
(0.58991 2.0451e-05 0.084)
(0.605839 2.0451e-05 0.084)
(0.623238 2.0451e-05 0.084)
(0.642245 2.0451e-05 0.084)
(0.663009 2.0451e-05 0.084)
(0.685695 2.0451e-05 0.084)
(0.710482 2.0451e-05 0.084)
(0.737566 2.0451e-05 0.084)
(0.767162 2.0451e-05 0.084)
(0.799504 2.0451e-05 0.084)
(0.834847 2.0451e-05 0.084)
(0.873471 2.0451e-05 0.084)
(0.915681 2.0451e-05 0.084)
(0.961812 2.0451e-05 0.084)
(1.01223 2.0451e-05 0.084)
(1.06733 2.0451e-05 0.084)
(1.12755 2.0451e-05 0.084)
(1.19336 2.0451e-05 0.084)
(1.2653 2.0451e-05 0.084)
(1.34392 2.0451e-05 0.084)
(1.42984 2.0451e-05 0.084)
(1.52375 2.0451e-05 0.084)
(1.6264 2.0451e-05 0.084)
(-0.852066 3.4742e-05 0.084)
(-0.75867 3.4742e-05 0.084)
(-0.666531 3.4742e-05 0.084)
(-0.577761 3.4742e-05 0.084)
(-0.49417 3.4742e-05 0.084)
(-0.417134 3.4742e-05 0.084)
(-0.34754 3.4742e-05 0.084)
(-0.285792 3.4742e-05 0.084)
(-0.231878 3.4742e-05 0.084)
(-0.185459 3.4742e-05 0.084)
(-0.145976 3.4742e-05 0.084)
(-0.112737 3.4742e-05 0.084)
(-0.0849976 3.4742e-05 0.084)
(-0.0620156 3.4742e-05 0.084)
(-0.04309 3.4742e-05 0.084)
(-0.0275823 3.47409e-05 0.084)
(-0.0149297 3.46869e-05 0.084)
(-0.00463824 3.45298e-05 0.084)
(0.00417194 0.000798494 0.084)
(0.0125078 0.00318986 0.084)
(0.0206689 0.00706397 0.084)
(0.0287099 0.0118618 0.084)
(0.0368835 0.0169817 0.084)
(0.0454697 0.0218647 0.084)
(0.0545559 0.0262196 0.084)
(0.0640131 0.0301311 0.084)
(0.0737269 0.0336781 0.084)
(0.0836433 0.0368086 0.084)
(0.0936908 0.0395229 0.084)
(0.103785 0.0418831 0.084)
(0.11385 0.0439479 0.084)
(0.123822 0.0457598 0.084)
(0.133646 0.04735 0.084)
(0.143271 0.0487378 0.084)
(0.152656 0.0499314 0.084)
(0.161765 0.0509389 0.084)
(0.170564 0.051771 0.084)
(0.179027 0.0524401 0.084)
(0.187133 0.0529584 0.084)
(0.194865 0.0533383 0.084)
(0.202213 0.0535907 0.084)
(0.20917 0.0537298 0.084)
(0.215734 0.0537706 0.084)
(0.221908 0.0537244 0.084)
(0.227697 0.0536029 0.084)
(0.23311 0.0534156 0.084)
(0.238156 0.0531723 0.084)
(0.24285 0.05288 0.084)
(0.247204 0.052544 0.084)
(0.251235 0.0521738 0.084)
(0.254958 0.0517779 0.084)
(0.258391 0.0513628 0.084)
(0.26155 0.0509315 0.084)
(0.264451 0.0504841 0.084)
(0.26711 0.0500252 0.084)
(0.269544 0.0495632 0.084)
(0.271767 0.0490932 0.084)
(0.273788 0.0485944 0.084)
(0.275657 0.0480343 0.084)
(0.277452 0.0473743 0.084)
(0.279195 0.0465888 0.084)
(0.280873 0.0456729 0.084)
(0.282488 0.0446484 0.084)
(0.284052 0.0435474 0.084)
(0.285577 0.0423911 0.084)
(0.287071 0.0411957 0.084)
(0.288545 0.0399749 0.084)
(0.290008 0.0387399 0.084)
(0.291464 0.0374973 0.084)
(0.29292 0.0362541 0.084)
(0.294384 0.0350191 0.084)
(0.295857 0.0337938 0.084)
(0.297334 0.0325739 0.084)
(0.298815 0.0313582 0.084)
(0.300304 0.030151 0.084)
(0.301805 0.0289584 0.084)
(0.303322 0.0277854 0.084)
(0.304856 0.0266335 0.084)
(0.306406 0.0255022 0.084)
(0.30797 0.0243908 0.084)
(0.309551 0.023301 0.084)
(0.311149 0.0222357 0.084)
(0.312766 0.021197 0.084)
(0.314401 0.0201866 0.084)
(0.316055 0.0192057 0.084)
(0.317727 0.0182554 0.084)
(0.319418 0.0173366 0.084)
(0.321127 0.0164504 0.084)
(0.322854 0.0155975 0.084)
(0.324599 0.0147787 0.084)
(0.32636 0.0139948 0.084)
(0.328138 0.0132451 0.084)
(0.32993 0.0125294 0.084)
(0.331736 0.0118463 0.084)
(0.333555 0.0111943 0.084)
(0.335386 0.0105727 0.084)
(0.337228 0.00998105 0.084)
(0.33908 0.00941823 0.084)
(0.340941 0.00888272 0.084)
(0.342811 0.00837224 0.084)
(0.344688 0.00788546 0.084)
(0.346572 0.00742171 0.084)
(0.348463 0.00697988 0.084)
(0.35036 0.00655868 0.084)
(0.352263 0.00615633 0.084)
(0.354171 0.00577097 0.084)
(0.356083 0.00540101 0.084)
(0.357999 0.00504529 0.084)
(0.359919 0.00470317 0.084)
(0.361844 0.00437414 0.084)
(0.363772 0.00405747 0.084)
(0.365703 0.0037524 0.084)
(0.367638 0.00345794 0.084)
(0.369575 0.00317315 0.084)
(0.371516 0.00289748 0.084)
(0.37346 0.00263074 0.084)
(0.375407 0.00237334 0.084)
(0.377357 0.00212591 0.084)
(0.37931 0.00188873 0.084)
(0.381266 0.00166178 0.084)
(0.383226 0.00144571 0.084)
(0.385188 0.00124212 0.084)
(0.387154 0.00105297 0.084)
(0.389124 0.000879804 0.084)
(0.391097 0.000724124 0.084)
(0.393073 0.000587405 0.084)
(0.395053 0.000470856 0.084)
(0.397036 0.000374985 0.084)
(0.399022 0.000299434 0.084)
(0.401011 0.000243324 0.084)
(0.403003 0.000204829 0.084)
(0.404997 0.000179821 0.084)
(0.406993 0.000161168 0.084)
(0.408992 0.000143173 0.084)
(0.410993 0.000124805 0.084)
(0.412997 0.000106229 0.084)
(0.415002 8.50023e-05 0.084)
(0.417011 6.01499e-05 0.084)
(0.419021 4.05429e-05 0.084)
(0.421036 3.40125e-05 0.084)
(0.42306 3.40125e-05 0.084)
(0.425109 3.40125e-05 0.084)
(0.427197 3.40125e-05 0.084)
(0.429342 3.40125e-05 0.084)
(0.431561 3.40125e-05 0.084)
(0.433872 3.40125e-05 0.084)
(0.436291 3.40125e-05 0.084)
(0.43884 3.40125e-05 0.084)
(0.441537 3.40125e-05 0.084)
(0.444404 3.40125e-05 0.084)
(0.447464 3.40124e-05 0.084)
(0.450741 3.40124e-05 0.084)
(0.454261 3.40187e-05 0.084)
(0.458052 3.40708e-05 0.084)
(0.462144 3.41978e-05 0.084)
(0.466569 3.43753e-05 0.084)
(0.471361 3.4558e-05 0.084)
(0.476559 3.4691e-05 0.084)
(0.482203 3.47398e-05 0.084)
(0.48834 3.4742e-05 0.084)
(0.495018 3.4742e-05 0.084)
(0.502288 3.4742e-05 0.084)
(0.510209 3.4742e-05 0.084)
(0.518844 3.4742e-05 0.084)
(0.528259 3.4742e-05 0.084)
(0.538531 3.4742e-05 0.084)
(0.54974 3.4742e-05 0.084)
(0.561975 3.4742e-05 0.084)
(0.575332 3.4742e-05 0.084)
(0.589918 3.4742e-05 0.084)
(0.605847 3.4742e-05 0.084)
(0.623246 3.4742e-05 0.084)
(0.642253 3.4742e-05 0.084)
(0.663017 3.4742e-05 0.084)
(0.685702 3.4742e-05 0.084)
(0.710489 3.4742e-05 0.084)
(0.737573 3.4742e-05 0.084)
(0.767169 3.4742e-05 0.084)
(0.79951 3.4742e-05 0.084)
(0.834853 3.4742e-05 0.084)
(0.873476 3.4742e-05 0.084)
(0.915686 3.4742e-05 0.084)
(0.961817 3.4742e-05 0.084)
(1.01223 3.4742e-05 0.084)
(1.06733 3.4742e-05 0.084)
(1.12755 3.4742e-05 0.084)
(1.19337 3.4742e-05 0.084)
(1.2653 3.4742e-05 0.084)
(1.34392 3.4742e-05 0.084)
(1.42984 3.4742e-05 0.084)
(1.52376 3.4742e-05 0.084)
(1.6264 3.4742e-05 0.084)
(-0.852066 5.00383e-05 0.084)
(-0.758671 5.00383e-05 0.084)
(-0.666533 5.00383e-05 0.084)
(-0.577764 5.00383e-05 0.084)
(-0.494173 5.00383e-05 0.084)
(-0.417139 5.00383e-05 0.084)
(-0.347546 5.00383e-05 0.084)
(-0.285799 5.00383e-05 0.084)
(-0.231885 5.00383e-05 0.084)
(-0.185467 5.00383e-05 0.084)
(-0.145984 5.00383e-05 0.084)
(-0.112745 5.00383e-05 0.084)
(-0.085006 5.00384e-05 0.084)
(-0.0620239 5.00384e-05 0.084)
(-0.0430981 5.00384e-05 0.084)
(-0.0275901 5.00368e-05 0.084)
(-0.0149372 4.9959e-05 0.084)
(-0.00464537 4.97328e-05 0.084)
(0.0041652 0.000813573 0.084)
(0.0125014 0.00320477 0.084)
(0.0206628 0.00707868 0.084)
(0.0287042 0.0118763 0.084)
(0.0368781 0.016996 0.084)
(0.0454646 0.0218788 0.084)
(0.054551 0.0262335 0.084)
(0.0640083 0.0301449 0.084)
(0.0737223 0.0336918 0.084)
(0.0836388 0.0368221 0.084)
(0.0936864 0.0395363 0.084)
(0.10378 0.0418964 0.084)
(0.113846 0.0439611 0.084)
(0.123818 0.045773 0.084)
(0.133641 0.0473631 0.084)
(0.143267 0.0487509 0.084)
(0.152653 0.0499444 0.084)
(0.161761 0.0509519 0.084)
(0.17056 0.0517839 0.084)
(0.179023 0.052453 0.084)
(0.187129 0.0529713 0.084)
(0.194861 0.0533512 0.084)
(0.202209 0.0536036 0.084)
(0.209166 0.0537427 0.084)
(0.215731 0.0537834 0.084)
(0.221905 0.0537372 0.084)
(0.227694 0.0536158 0.084)
(0.233107 0.0534285 0.084)
(0.238154 0.0531852 0.084)
(0.242847 0.0528929 0.084)
(0.247202 0.0525569 0.084)
(0.251233 0.0521867 0.084)
(0.254957 0.0517909 0.084)
(0.25839 0.0513758 0.084)
(0.261549 0.0509445 0.084)
(0.26445 0.0504971 0.084)
(0.267109 0.0500382 0.084)
(0.269544 0.0495762 0.084)
(0.271767 0.0491062 0.084)
(0.273788 0.0486074 0.084)
(0.275657 0.0480473 0.084)
(0.277452 0.0473874 0.084)
(0.279196 0.046602 0.084)
(0.280874 0.045686 0.084)
(0.282489 0.0446616 0.084)
(0.284053 0.0435606 0.084)
(0.285578 0.0424044 0.084)
(0.287072 0.041209 0.084)
(0.288547 0.0399883 0.084)
(0.290009 0.0387533 0.084)
(0.291466 0.0375107 0.084)
(0.292922 0.0362677 0.084)
(0.294386 0.0350327 0.084)
(0.295859 0.0338075 0.084)
(0.297336 0.0325875 0.084)
(0.298817 0.0313719 0.084)
(0.300306 0.0301648 0.084)
(0.301807 0.0289722 0.084)
(0.303324 0.0277993 0.084)
(0.304858 0.0266474 0.084)
(0.306408 0.0255161 0.084)
(0.307973 0.0244048 0.084)
(0.309554 0.023315 0.084)
(0.311152 0.0222498 0.084)
(0.312769 0.0212112 0.084)
(0.314404 0.0202008 0.084)
(0.316058 0.0192199 0.084)
(0.31773 0.0182696 0.084)
(0.319421 0.0173509 0.084)
(0.32113 0.0164647 0.084)
(0.322857 0.0156118 0.084)
(0.324602 0.0147931 0.084)
(0.326363 0.0140092 0.084)
(0.328141 0.0132596 0.084)
(0.329933 0.0125438 0.084)
(0.33174 0.0118608 0.084)
(0.333559 0.0112089 0.084)
(0.335389 0.0105873 0.084)
(0.337231 0.00999562 0.084)
(0.339083 0.00943283 0.084)
(0.340944 0.00889734 0.084)
(0.342814 0.00838688 0.084)
(0.344691 0.00790012 0.084)
(0.346576 0.00743639 0.084)
(0.348467 0.00699457 0.084)
(0.350364 0.00657339 0.084)
(0.352267 0.00617106 0.084)
(0.354174 0.00578572 0.084)
(0.356087 0.00541577 0.084)
(0.358003 0.00506006 0.084)
(0.359923 0.00471796 0.084)
(0.361848 0.00438894 0.084)
(0.363776 0.00407229 0.084)
(0.365707 0.00376723 0.084)
(0.367642 0.00347278 0.084)
(0.36958 0.003188 0.084)
(0.371521 0.00291234 0.084)
(0.373465 0.00264561 0.084)
(0.375411 0.00238822 0.084)
(0.377362 0.0021408 0.084)
(0.379315 0.00190363 0.084)
(0.381271 0.00167669 0.084)
(0.38323 0.00146063 0.084)
(0.385193 0.00125705 0.084)
(0.387159 0.00106791 0.084)
(0.389129 0.000894745 0.084)
(0.391102 0.000739071 0.084)
(0.393078 0.000602358 0.084)
(0.395058 0.000485814 0.084)
(0.397041 0.000389947 0.084)
(0.399028 0.000314399 0.084)
(0.401017 0.000258291 0.084)
(0.403008 0.000219798 0.084)
(0.405002 0.00019479 0.084)
(0.406999 0.000176138 0.084)
(0.408998 0.000158144 0.084)
(0.410999 0.000139777 0.084)
(0.413002 0.000121201 0.084)
(0.415008 9.99755e-05 0.084)
(0.417017 7.5124e-05 0.084)
(0.419028 5.55178e-05 0.084)
(0.421042 4.89876e-05 0.084)
(0.423066 4.89876e-05 0.084)
(0.425115 4.89876e-05 0.084)
(0.427204 4.89876e-05 0.084)
(0.429349 4.89876e-05 0.084)
(0.431568 4.89876e-05 0.084)
(0.433879 4.89876e-05 0.084)
(0.436298 4.89876e-05 0.084)
(0.438847 4.89876e-05 0.084)
(0.441544 4.89876e-05 0.084)
(0.444411 4.89876e-05 0.084)
(0.447471 4.89876e-05 0.084)
(0.450749 4.89876e-05 0.084)
(0.454269 4.89965e-05 0.084)
(0.45806 4.90717e-05 0.084)
(0.462152 4.92546e-05 0.084)
(0.466577 4.95102e-05 0.084)
(0.47137 4.97734e-05 0.084)
(0.476567 4.99649e-05 0.084)
(0.482212 5.00352e-05 0.084)
(0.488349 5.00384e-05 0.084)
(0.495026 5.00384e-05 0.084)
(0.502297 5.00384e-05 0.084)
(0.510218 5.00384e-05 0.084)
(0.518852 5.00384e-05 0.084)
(0.528268 5.00384e-05 0.084)
(0.53854 5.00384e-05 0.084)
(0.549749 5.00384e-05 0.084)
(0.561984 5.00384e-05 0.084)
(0.575341 5.00383e-05 0.084)
(0.589927 5.00383e-05 0.084)
(0.605856 5.00383e-05 0.084)
(0.623255 5.00383e-05 0.084)
(0.642261 5.00383e-05 0.084)
(0.663025 5.00383e-05 0.084)
(0.68571 5.00383e-05 0.084)
(0.710497 5.00383e-05 0.084)
(0.737581 5.00383e-05 0.084)
(0.767176 5.00383e-05 0.084)
(0.799517 5.00383e-05 0.084)
(0.834859 5.00383e-05 0.084)
(0.873482 5.00383e-05 0.084)
(0.915692 5.00383e-05 0.084)
(0.961822 5.00383e-05 0.084)
(1.01224 5.00383e-05 0.084)
(1.06734 5.00383e-05 0.084)
(1.12755 5.00383e-05 0.084)
(1.19337 5.00383e-05 0.084)
(1.2653 5.00383e-05 0.084)
(1.34392 5.00383e-05 0.084)
(1.42984 5.00383e-05 0.084)
(1.52376 5.00383e-05 0.084)
(1.6264 5.00384e-05 0.084)
(-0.852066 6.67828e-05 0.084)
(-0.758671 6.67828e-05 0.084)
(-0.666534 6.67828e-05 0.084)
(-0.577766 6.67828e-05 0.084)
(-0.494177 6.67828e-05 0.084)
(-0.417144 6.67828e-05 0.084)
(-0.347552 6.67828e-05 0.084)
(-0.285806 6.67828e-05 0.084)
(-0.231893 6.67828e-05 0.084)
(-0.185476 6.67828e-05 0.084)
(-0.145993 6.67828e-05 0.084)
(-0.112755 6.67828e-05 0.084)
(-0.0850151 6.67828e-05 0.084)
(-0.062033 6.67828e-05 0.084)
(-0.043107 6.67828e-05 0.084)
(-0.0275987 6.67807e-05 0.084)
(-0.0149454 6.66768e-05 0.084)
(-0.00465318 6.63749e-05 0.084)
(0.00415782 0.000830079 0.084)
(0.0124944 0.00322108 0.084)
(0.0206563 0.00709477 0.084)
(0.028698 0.0118922 0.084)
(0.0368722 0.0170116 0.084)
(0.045459 0.0218942 0.084)
(0.0545456 0.0262488 0.084)
(0.0640031 0.03016 0.084)
(0.0737173 0.0337067 0.084)
(0.0836339 0.0368369 0.084)
(0.0936816 0.039551 0.084)
(0.103776 0.041911 0.084)
(0.113841 0.0439756 0.084)
(0.123814 0.0457874 0.084)
(0.133637 0.0473774 0.084)
(0.143263 0.0487652 0.084)
(0.152648 0.0499587 0.084)
(0.161757 0.0509661 0.084)
(0.170556 0.0517981 0.084)
(0.179019 0.0524671 0.084)
(0.187125 0.0529854 0.084)
(0.194857 0.0533653 0.084)
(0.202205 0.0536177 0.084)
(0.209163 0.0537568 0.084)
(0.215727 0.0537975 0.084)
(0.221902 0.0537513 0.084)
(0.227691 0.0536299 0.084)
(0.233104 0.0534426 0.084)
(0.238151 0.0531993 0.084)
(0.242845 0.0529071 0.084)
(0.2472 0.052571 0.084)
(0.251231 0.0522009 0.084)
(0.254955 0.051805 0.084)
(0.258388 0.05139 0.084)
(0.261548 0.0509587 0.084)
(0.264449 0.0505113 0.084)
(0.267108 0.0500524 0.084)
(0.269543 0.0495904 0.084)
(0.271767 0.0491205 0.084)
(0.273788 0.0486217 0.084)
(0.275658 0.0480617 0.084)
(0.277453 0.0474017 0.084)
(0.279197 0.0466163 0.084)
(0.280875 0.0457005 0.084)
(0.28249 0.0446761 0.084)
(0.284055 0.0435751 0.084)
(0.28558 0.042419 0.084)
(0.287074 0.0412236 0.084)
(0.288549 0.040003 0.084)
(0.290011 0.038768 0.084)
(0.291468 0.0375255 0.084)
(0.292924 0.0362825 0.084)
(0.294388 0.0350476 0.084)
(0.295861 0.0338224 0.084)
(0.297338 0.0326025 0.084)
(0.29882 0.0313869 0.084)
(0.300309 0.0301799 0.084)
(0.30181 0.0289873 0.084)
(0.303327 0.0278144 0.084)
(0.304861 0.0266627 0.084)
(0.306411 0.0255314 0.084)
(0.307976 0.0244201 0.084)
(0.309557 0.0233304 0.084)
(0.311155 0.0222652 0.084)
(0.312772 0.0212266 0.084)
(0.314407 0.0202163 0.084)
(0.316061 0.0192355 0.084)
(0.317733 0.0182852 0.084)
(0.319424 0.0173666 0.084)
(0.321134 0.0164804 0.084)
(0.322861 0.0156275 0.084)
(0.324605 0.0148089 0.084)
(0.326367 0.0140249 0.084)
(0.328144 0.0132754 0.084)
(0.329937 0.0125597 0.084)
(0.331743 0.0118767 0.084)
(0.333562 0.0112248 0.084)
(0.335393 0.0106032 0.084)
(0.337235 0.0100116 0.084)
(0.339087 0.00944881 0.084)
(0.340948 0.00891335 0.084)
(0.342818 0.00840291 0.084)
(0.344695 0.00791617 0.084)
(0.34658 0.00745246 0.084)
(0.348471 0.00701066 0.084)
(0.350368 0.0065895 0.084)
(0.352271 0.00618718 0.084)
(0.354179 0.00580186 0.084)
(0.356091 0.00543193 0.084)
(0.358007 0.00507623 0.084)
(0.359928 0.00473415 0.084)
(0.361852 0.00440514 0.084)
(0.36378 0.0040885 0.084)
(0.365712 0.00378346 0.084)
(0.367646 0.00348902 0.084)
(0.369584 0.00320425 0.084)
(0.371525 0.00292861 0.084)
(0.373469 0.00266189 0.084)
(0.375416 0.00240451 0.084)
(0.377366 0.0021571 0.084)
(0.37932 0.00191994 0.084)
(0.381276 0.00169301 0.084)
(0.383236 0.00147696 0.084)
(0.385198 0.00127339 0.084)
(0.387164 0.00108425 0.084)
(0.389134 0.000911101 0.084)
(0.391107 0.000755434 0.084)
(0.393084 0.000618726 0.084)
(0.395064 0.000502187 0.084)
(0.397047 0.000406324 0.084)
(0.399033 0.00033078 0.084)
(0.401022 0.000274674 0.084)
(0.403014 0.000236183 0.084)
(0.405008 0.000211177 0.084)
(0.407005 0.000192525 0.084)
(0.409004 0.000174532 0.084)
(0.411005 0.000156166 0.084)
(0.413009 0.000137591 0.084)
(0.415015 0.000116366 0.084)
(0.417023 9.15157e-05 0.084)
(0.419034 7.19104e-05 0.084)
(0.421049 6.53804e-05 0.084)
(0.423073 6.53804e-05 0.084)
(0.425122 6.53804e-05 0.084)
(0.427211 6.53804e-05 0.084)
(0.429356 6.53804e-05 0.084)
(0.431576 6.53804e-05 0.084)
(0.433886 6.53804e-05 0.084)
(0.436306 6.53804e-05 0.084)
(0.438855 6.53804e-05 0.084)
(0.441552 6.53804e-05 0.084)
(0.444419 6.53804e-05 0.084)
(0.44748 6.53804e-05 0.084)
(0.450757 6.53804e-05 0.084)
(0.454277 6.53924e-05 0.084)
(0.458069 6.54926e-05 0.084)
(0.462161 6.57368e-05 0.084)
(0.466586 6.60779e-05 0.084)
(0.471379 6.64292e-05 0.084)
(0.476576 6.66848e-05 0.084)
(0.482221 6.67786e-05 0.084)
(0.488358 6.67828e-05 0.084)
(0.495036 6.67828e-05 0.084)
(0.502306 6.67828e-05 0.084)
(0.510228 6.67828e-05 0.084)
(0.518862 6.67828e-05 0.084)
(0.528278 6.67828e-05 0.084)
(0.53855 6.67828e-05 0.084)
(0.549759 6.67828e-05 0.084)
(0.561993 6.67828e-05 0.084)
(0.575351 6.67828e-05 0.084)
(0.589937 6.67828e-05 0.084)
(0.605866 6.67828e-05 0.084)
(0.623265 6.67828e-05 0.084)
(0.642271 6.67828e-05 0.084)
(0.663034 6.67828e-05 0.084)
(0.685719 6.67828e-05 0.084)
(0.710506 6.67828e-05 0.084)
(0.737589 6.67828e-05 0.084)
(0.767184 6.67828e-05 0.084)
(0.799525 6.67828e-05 0.084)
(0.834867 6.67828e-05 0.084)
(0.873489 6.67828e-05 0.084)
(0.915698 6.67828e-05 0.084)
(0.961827 6.67828e-05 0.084)
(1.01224 6.67828e-05 0.084)
(1.06734 6.67828e-05 0.084)
(1.12756 6.67828e-05 0.084)
(1.19337 6.67828e-05 0.084)
(1.2653 6.67828e-05 0.084)
(1.34392 6.67828e-05 0.084)
(1.42984 6.67828e-05 0.084)
(1.52376 6.67828e-05 0.084)
(1.6264 6.67828e-05 0.084)
(-0.852066 8.54598e-05 0.084)
(-0.758672 8.54598e-05 0.084)
(-0.666536 8.54598e-05 0.084)
(-0.577769 8.54598e-05 0.084)
(-0.494182 8.54598e-05 0.084)
(-0.41715 8.54598e-05 0.084)
(-0.347559 8.54598e-05 0.084)
(-0.285814 8.54598e-05 0.084)
(-0.231902 8.54598e-05 0.084)
(-0.185485 8.54598e-05 0.084)
(-0.146003 8.54598e-05 0.084)
(-0.112765 8.54598e-05 0.084)
(-0.0850253 8.54599e-05 0.084)
(-0.0620431 8.54599e-05 0.084)
(-0.0431168 8.54599e-05 0.084)
(-0.0276082 8.54572e-05 0.084)
(-0.0149546 8.53243e-05 0.084)
(-0.00466188 8.49379e-05 0.084)
(0.00414959 0.000848491 0.084)
(0.0124867 0.00323927 0.084)
(0.0206489 0.00711273 0.084)
(0.0286911 0.0119099 0.084)
(0.0368656 0.0170291 0.084)
(0.0454527 0.0219114 0.084)
(0.0545396 0.0262658 0.084)
(0.0639973 0.0301768 0.084)
(0.0737116 0.0337233 0.084)
(0.0836285 0.0368534 0.084)
(0.0936763 0.0395673 0.084)
(0.10377 0.0419272 0.084)
(0.113836 0.0439918 0.084)
(0.123809 0.0458034 0.084)
(0.133632 0.0473934 0.084)
(0.143258 0.0487811 0.084)
(0.152643 0.0499745 0.084)
(0.161752 0.0509819 0.084)
(0.170551 0.0518139 0.084)
(0.179015 0.0524829 0.084)
(0.18712 0.0530012 0.084)
(0.194853 0.053381 0.084)
(0.202201 0.0536334 0.084)
(0.209159 0.0537725 0.084)
(0.215724 0.0538132 0.084)
(0.221898 0.053767 0.084)
(0.227688 0.0536456 0.084)
(0.233101 0.0534583 0.084)
(0.238148 0.053215 0.084)
(0.242842 0.0529228 0.084)
(0.247197 0.0525868 0.084)
(0.251228 0.0522166 0.084)
(0.254953 0.0518208 0.084)
(0.258386 0.0514058 0.084)
(0.261546 0.0509745 0.084)
(0.264448 0.0505272 0.084)
(0.267108 0.0500683 0.084)
(0.269543 0.0496063 0.084)
(0.271767 0.0491364 0.084)
(0.273789 0.0486377 0.084)
(0.275659 0.0480776 0.084)
(0.277454 0.0474178 0.084)
(0.279198 0.0466324 0.084)
(0.280876 0.0457166 0.084)
(0.282492 0.0446922 0.084)
(0.284057 0.0435913 0.084)
(0.285581 0.0424352 0.084)
(0.287076 0.0412399 0.084)
(0.288551 0.0400193 0.084)
(0.290013 0.0387844 0.084)
(0.29147 0.037542 0.084)
(0.292927 0.036299 0.084)
(0.294391 0.0350642 0.084)
(0.295863 0.0338391 0.084)
(0.297341 0.0326192 0.084)
(0.298822 0.0314037 0.084)
(0.300311 0.0301967 0.084)
(0.301813 0.0290042 0.084)
(0.30333 0.0278314 0.084)
(0.304864 0.0266797 0.084)
(0.306414 0.0255484 0.084)
(0.307979 0.0244372 0.084)
(0.30956 0.0233475 0.084)
(0.311158 0.0222824 0.084)