/*--------------------------------*- C++ -*----------------------------------*\
| =========                 |                                                 |
| \\      /  F ield         | OpenFOAM: The Open Source CFD Toolbox           |
|  \\    /   O peration     | Version:  2212                                  |
|   \\  /    A nd           | Website:  www.openfoam.com                      |
|    \\/     M anipulation  |                                                 |
\*---------------------------------------------------------------------------*/
FoamFile
{
    version     2.0;
    format      ascii;
    arch        "LSB;label=32;scalar=64";
    class       volScalarField;
    location    "0";
    object      Cx;
}
// * * * * * * * * * * * * * * * * * * * * * * * * * * * * * * * * * * * * * //

dimensions      [0 1 0 0 0 0 0];

internalField   nonuniform List<scalar> 
10368
(
-0.852066
-0.758669
-0.666528
-0.577756
-0.494163
-0.417125
-0.347529
-0.28578
-0.231864
-0.185445
-0.145961
-0.112722
-0.0849823
-0.0620005
-0.0430752
-0.0275679
-0.014916
-0.00462519
0.00418428
0.0125194
0.0206799
0.0287203
0.0368934
0.0454791
0.054565
0.0640218
0.0737353
0.0836515
0.0936988
0.103793
0.113858
0.12383
0.133653
0.143278
0.152664
0.161772
0.170571
0.179034
0.187139
0.194871
0.202219
0.209176
0.21574
0.221914
0.227703
0.233115
0.238161
0.242854
0.247208
0.251239
0.254962
0.258394
0.261552
0.264453
0.267111
0.269545
0.271767
0.273787
0.275656
0.27745
0.279193
0.28087
0.282485
0.284049
0.285574
0.287068
0.288542
0.290004
0.291461
0.292917
0.294381
0.295853
0.29733
0.298811
0.3003
0.301801
0.303318
0.304851
0.306401
0.307966
0.309546
0.311144
0.312761
0.314396
0.316049
0.317722
0.319413
0.321122
0.322849
0.324593
0.326355
0.328132
0.329924
0.33173
0.333549
0.33538
0.337221
0.339073
0.340934
0.342804
0.344681
0.346565
0.348456
0.350353
0.352256
0.354164
0.356076
0.357992
0.359912
0.361836
0.363764
0.365695
0.36763
0.369568
0.371508
0.373452
0.375399
0.377349
0.379302
0.381258
0.383217
0.38518
0.387146
0.389115
0.391088
0.393064
0.395044
0.397027
0.399013
0.401002
0.402993
0.404987
0.406983
0.408982
0.410983
0.412986
0.414992
0.417
0.41901
0.421024
0.423049
0.425097
0.427185
0.42933
0.431549
0.433859
0.436278
0.438827
0.441523
0.44439
0.44745
0.450727
0.454247
0.458038
0.46213
0.466554
0.471346
0.476544
0.482188
0.488325
0.495002
0.502272
0.510193
0.518827
0.528243
0.538515
0.549724
0.561959
0.575316
0.589902
0.605831
0.623231
0.642237
0.663001
0.685687
0.710475
0.737559
0.767155
0.799497
0.834841
0.873465
0.915676
0.961807
1.01222
1.06732
1.12754
1.19336
1.26529
1.34391
1.42984
1.52375
1.6264
-0.852066
-0.75867
-0.66653
-0.577759
-0.494166
-0.41713
-0.347535
-0.285786
-0.231871
-0.185452
-0.145968
-0.112729
-0.0849898
-0.0620079
-0.0430824
-0.027575
-0.0149227
-0.00463158
0.00417824
0.0125137
0.0206745
0.0287152
0.0368886
0.0454745
0.0545605
0.0640175
0.0737312
0.0836475
0.0936949
0.103789
0.113854
0.123826
0.133649
0.143275
0.15266
0.161769
0.170568
0.179031
0.187136
0.194868
0.202216
0.209173
0.215737
0.221911
0.2277
0.233112
0.238159
0.242852
0.247206
0.251237
0.25496
0.258393
0.261551
0.264452
0.26711
0.269544
0.271767
0.273787
0.275656
0.277451
0.279194
0.280871
0.282486
0.284051
0.285575
0.287069
0.288544
0.290006
0.291462
0.292919
0.294382
0.295855
0.297332
0.298813
0.300302
0.301803
0.30332
0.304854
0.306403
0.307968
0.309549
0.311147
0.312763
0.314398
0.316052
0.317724
0.319415
0.321125
0.322851
0.324596
0.326357
0.328135
0.329927
0.331733
0.333552
0.335383
0.337224
0.339076
0.340938
0.342807
0.344684
0.346569
0.34846
0.350357
0.352259
0.354167
0.356079
0.357995
0.359916
0.36184
0.363768
0.365699
0.367634
0.369571
0.371512
0.373456
0.375403
0.377353
0.379306
0.381262
0.383221
0.385184
0.38715
0.389119
0.391092
0.393069
0.395048
0.397031
0.399017
0.401006
0.402998
0.404992
0.406988
0.408987
0.410988
0.412991
0.414997
0.417005
0.419016
0.42103
0.423054
0.425103
0.427191
0.429336
0.431555
0.433865
0.436285
0.438833
0.44153
0.444397
0.447457
0.450734
0.454254
0.458045
0.462137
0.466561
0.471354
0.476551
0.482195
0.488332
0.49501
0.50228
0.510201
0.518835
0.528251
0.538523
0.549732
0.561967
0.575324
0.58991
0.605839
0.623238
0.642245
0.663009
0.685695
0.710482
0.737566
0.767162
0.799504
0.834847
0.873471
0.915681
0.961812
1.01223
1.06733
1.12755
1.19336
1.2653
1.34392
1.42984
1.52375
1.6264
-0.852066
-0.75867
-0.666531
-0.577761
-0.49417
-0.417134
-0.34754
-0.285792
-0.231878
-0.185459
-0.145976
-0.112737
-0.0849976
-0.0620156
-0.04309
-0.0275823
-0.0149297
-0.00463824
0.00417194
0.0125078
0.0206689
0.0287099
0.0368835
0.0454697
0.0545559
0.0640131
0.0737269
0.0836433
0.0936908
0.103785
0.11385
0.123822
0.133646
0.143271
0.152656
0.161765
0.170564
0.179027
0.187133
0.194865
0.202213
0.20917
0.215734
0.221908
0.227697
0.23311
0.238156
0.24285
0.247204
0.251235
0.254958
0.258391
0.26155
0.264451
0.26711
0.269544
0.271767
0.273788
0.275657
0.277452
0.279195
0.280873
0.282488
0.284052
0.285577
0.287071
0.288545
0.290008
0.291464
0.29292
0.294384
0.295857
0.297334
0.298815
0.300304
0.301805
0.303322
0.304856
0.306406
0.30797
0.309551
0.311149
0.312766
0.314401
0.316055
0.317727
0.319418
0.321127
0.322854
0.324599
0.32636
0.328138
0.32993
0.331736
0.333555
0.335386
0.337228
0.33908
0.340941
0.342811
0.344688
0.346572
0.348463
0.35036
0.352263
0.354171
0.356083
0.357999
0.359919
0.361844
0.363772
0.365703
0.367638
0.369575
0.371516
0.37346
0.375407
0.377357
0.37931
0.381266
0.383226
0.385188
0.387154
0.389124
0.391097
0.393073
0.395053
0.397036
0.399022
0.401011
0.403003
0.404997
0.406993
0.408992
0.410993
0.412997
0.415002
0.417011
0.419021
0.421036
0.42306
0.425109
0.427197
0.429342
0.431561
0.433872
0.436291
0.43884
0.441537
0.444404
0.447464
0.450741
0.454261
0.458052
0.462144
0.466569
0.471361
0.476559
0.482203
0.48834
0.495018
0.502288
0.510209
0.518844
0.528259
0.538531
0.54974
0.561975
0.575332
0.589918
0.605847
0.623246
0.642253
0.663017
0.685702
0.710489
0.737573
0.767169
0.79951
0.834853
0.873476
0.915686
0.961817
1.01223
1.06733
1.12755
1.19337
1.2653
1.34392
1.42984
1.52376
1.6264
-0.852066
-0.758671
-0.666533
-0.577764
-0.494173
-0.417139
-0.347546
-0.285799
-0.231885
-0.185467
-0.145984
-0.112745
-0.085006
-0.0620239
-0.0430981
-0.0275901
-0.0149372
-0.00464537
0.0041652
0.0125014
0.0206628
0.0287042
0.0368781
0.0454646
0.054551
0.0640083
0.0737223
0.0836388
0.0936864
0.10378
0.113846
0.123818
0.133641
0.143267
0.152653
0.161761
0.17056
0.179023
0.187129
0.194861
0.202209
0.209166
0.215731
0.221905
0.227694
0.233107
0.238154
0.242847
0.247202
0.251233
0.254957
0.25839
0.261549
0.26445
0.267109
0.269544
0.271767
0.273788
0.275657
0.277452
0.279196
0.280874
0.282489
0.284053
0.285578
0.287072
0.288547
0.290009
0.291466
0.292922
0.294386
0.295859
0.297336
0.298817
0.300306
0.301807
0.303324
0.304858
0.306408
0.307973
0.309554
0.311152
0.312769
0.314404
0.316058
0.31773
0.319421
0.32113
0.322857
0.324602
0.326363
0.328141
0.329933
0.33174
0.333559
0.335389
0.337231
0.339083
0.340944
0.342814
0.344691
0.346576
0.348467
0.350364
0.352267
0.354174
0.356087
0.358003
0.359923
0.361848
0.363776
0.365707
0.367642
0.36958
0.371521
0.373465
0.375411
0.377362
0.379315
0.381271
0.38323
0.385193
0.387159
0.389129
0.391102
0.393078
0.395058
0.397041
0.399028
0.401017
0.403008
0.405002
0.406999
0.408998
0.410999
0.413002
0.415008
0.417017
0.419028
0.421042
0.423066
0.425115
0.427204
0.429349
0.431568
0.433879
0.436298
0.438847
0.441544
0.444411
0.447471
0.450749
0.454269
0.45806
0.462152
0.466577
0.47137
0.476567
0.482212
0.488349
0.495026
0.502297
0.510218
0.518852
0.528268
0.53854
0.549749
0.561984
0.575341
0.589927
0.605856
0.623255
0.642261
0.663025
0.68571
0.710497
0.737581
0.767176
0.799517
0.834859
0.873482
0.915692
0.961822
1.01224
1.06734
1.12755
1.19337
1.2653
1.34392
1.42984
1.52376
1.6264
-0.852066
-0.758671
-0.666534
-0.577766
-0.494177
-0.417144
-0.347552
-0.285806
-0.231893
-0.185476
-0.145993
-0.112755
-0.0850151
-0.062033
-0.043107
-0.0275987
-0.0149454
-0.00465318
0.00415782
0.0124944
0.0206563
0.028698
0.0368722
0.045459
0.0545456
0.0640031
0.0737173
0.0836339
0.0936816
0.103776
0.113841
0.123814
0.133637
0.143263
0.152648
0.161757
0.170556
0.179019
0.187125
0.194857
0.202205
0.209163
0.215727
0.221902
0.227691
0.233104
0.238151
0.242845
0.2472
0.251231
0.254955
0.258388
0.261548
0.264449
0.267108
0.269543
0.271767
0.273788
0.275658
0.277453
0.279197
0.280875
0.28249
0.284055
0.28558
0.287074
0.288549
0.290011
0.291468
0.292924
0.294388
0.295861
0.297338
0.29882
0.300309
0.30181
0.303327
0.304861
0.306411
0.307976
0.309557
0.311155
0.312772
0.314407
0.316061
0.317733
0.319424
0.321134
0.322861
0.324605
0.326367
0.328144
0.329937
0.331743
0.333562
0.335393
0.337235
0.339087
0.340948
0.342818
0.344695
0.34658
0.348471
0.350368
0.352271
0.354179
0.356091
0.358007
0.359928
0.361852
0.36378
0.365712
0.367646
0.369584
0.371525
0.373469
0.375416
0.377366
0.37932
0.381276
0.383236
0.385198
0.387164
0.389134
0.391107
0.393084
0.395064
0.397047
0.399033
0.401022
0.403014
0.405008
0.407005
0.409004
0.411005
0.413009
0.415015
0.417023
0.419034
0.421049
0.423073
0.425122
0.427211
0.429356
0.431576
0.433886
0.436306
0.438855
0.441552
0.444419
0.44748
0.450757
0.454277
0.458069
0.462161
0.466586
0.471379
0.476576
0.482221
0.488358
0.495036
0.502306
0.510228
0.518862
0.528278
0.53855
0.549759
0.561993
0.575351
0.589937
0.605866
0.623265
0.642271
0.663034
0.685719
0.710506
0.737589
0.767184
0.799525
0.834867
0.873489
0.915698
0.961827
1.01224
1.06734
1.12756
1.19337
1.2653
1.34392
1.42984
1.52376
1.6264
-0.852066
-0.758672
-0.666536
-0.577769
-0.494182
-0.41715
-0.347559
-0.285814
-0.231902
-0.185485
-0.146003
-0.112765
-0.0850253
-0.0620431
-0.0431168
-0.0276082
-0.0149546
-0.00466188
0.00414959
0.0124867
0.0206489
0.0286911
0.0368656
0.0454527
0.0545396
0.0639973
0.0737116
0.0836285
0.0936763
0.10377
0.113836
0.123809
0.133632
0.143258
0.152643
0.161752
0.170551
0.179015
0.18712
0.194853
0.202201
0.209159
0.215724
0.221898
0.227688
0.233101
0.238148
0.242842
0.247197
0.251228
0.254953
0.258386
0.261546
0.264448
0.267108
0.269543
0.271767
0.273789
0.275659
0.277454
0.279198
0.280876
0.282492
0.284057
0.285581
0.287076
0.288551
0.290013
0.29147
0.292927
0.294391
0.295863
0.297341
0.298822
0.300311
0.301813
0.30333
0.304864
0.306414
0.307979
0.30956
0.311158
0.312775
0.31441
0.316064
0.317737
0.319428
0.321137
0.322865
0.324609
0.326371
0.328148
0.329941
0.331747
0.333566
0.335397
0.337239
0.339091
0.340953
0.342822
0.3447
0.346584
0.348476
0.350373
0.352276
0.354183
0.356096
0.358012
0.359933
0.361857
0.363785
0.365717
0.367652
0.36959
0.371531
0.373475
0.375422
0.377372
0.379325
0.381282
0.383241
0.385204
0.38717
0.38914
0.391113
0.39309
0.39507
0.397053
0.39904
0.401029
0.403021
0.405015
0.407012
0.409011
0.411012
0.413016
0.415022
0.417031
0.419042
0.421056
0.423081
0.42513
0.427219
0.429365
0.431584
0.433895
0.436315
0.438863
0.441561
0.444429
0.447489
0.450766
0.454287
0.458078
0.462171
0.466596
0.471389
0.476587
0.482231
0.488369
0.495046
0.502317
0.510238
0.518873
0.528289
0.538561
0.54977
0.562004
0.575362
0.589947
0.605876
0.623275
0.642281
0.663044
0.685729
0.710515
0.737599
0.767193
0.799533
0.834875
0.873497
0.915705
0.961834
1.01225
1.06734
1.12756
1.19338
1.26531
1.34392
1.42984
1.52376
1.6264
-0.852066
-0.758673
-0.666538
-0.577773
-0.494187
-0.417157
-0.347567
-0.285823
-0.231912
-0.185496
-0.146014
-0.112776
-0.0850369
-0.0620545
-0.043128
-0.0276191
-0.014965
-0.00467174
0.00414027
0.0124779
0.0206406
0.0286832
0.0368582
0.0454456
0.0545328
0.0639908
0.0737053
0.0836223
0.0936702
0.103765
0.11383
0.123803
0.133626
0.143252
0.152638
0.161747
0.170546
0.179009
0.187115
0.194848
0.202196
0.209154
0.215719
0.221894
0.227684
0.233097
0.238144
0.242839
0.247194
0.251226
0.25495
0.258384
0.261544
0.264446
0.267107
0.269542
0.271767
0.273789
0.27566
0.277456
0.279199
0.280878
0.282494
0.284059
0.285583
0.287078
0.288553
0.290016
0.291473
0.292929
0.294393
0.295866
0.297344
0.298825
0.300314
0.301816
0.303333
0.304867
0.306417
0.307983
0.309564
0.311162
0.312779
0.314414
0.316068
0.317741
0.319432
0.321141
0.322869
0.324614
0.326375
0.328153
0.329945
0.331752
0.333571
0.335402
0.337244
0.339096
0.340958
0.342827
0.344705
0.346589
0.348481
0.350378
0.352281
0.354189
0.356101
0.358018
0.359938
0.361863
0.363791
0.365722
0.367657
0.369595
0.371537
0.373481
0.375428
0.377378
0.379331
0.381288
0.383248
0.385211
0.387177
0.389147
0.39112
0.393097
0.395077
0.39706
0.399047
0.401036
0.403028
0.405022
0.407019
0.409018
0.41102
0.413024
0.41503
0.417039
0.41905
0.421065
0.42309
0.425139
0.427228
0.429374
0.431593
0.433904
0.436324
0.438873
0.441571
0.444439
0.447499
0.450777
0.454297
0.458089
0.462182
0.466607
0.4714
0.476598
0.482243
0.48838
0.495058
0.502329
0.51025
0.518885
0.528301
0.538573
0.549782
0.562017
0.575374
0.589959
0.605889
0.623287
0.642293
0.663056
0.685741
0.710526
0.737609
0.767204
0.799543
0.834884
0.873505
0.915713
0.961841
1.01225
1.06735
1.12757
1.19338
1.26531
1.34392
1.42985
1.52376
1.6264
-0.852067
-0.758674
-0.66654
-0.577777
-0.494193
-0.417164
-0.347576
-0.285834
-0.231924
-0.185508
-0.146027
-0.112789
-0.0850501
-0.0620677
-0.0431409
-0.0276315
-0.0149769
-0.00468304
0.00412959
0.0124678
0.0206311
0.0286742
0.0368496
0.0454375
0.054525
0.0639833
0.073698
0.0836152
0.0936633
0.103758
0.113824
0.123796
0.13362
0.143246
0.152632
0.16174
0.17054
0.179003
0.187109
0.194842
0.202191
0.209149
0.215714
0.221889
0.227679
0.233092
0.23814
0.242835
0.24719
0.251223
0.254948
0.258382
0.261543
0.264445
0.267106
0.269542
0.271767
0.27379
0.275661
0.277457
0.279201
0.28088
0.282496
0.284061
0.285586
0.287081
0.288555
0.290018
0.291475
0.292932
0.294396
0.295869
0.297347
0.298829
0.300318
0.301819
0.303337
0.304871
0.306421
0.307987
0.309568
0.311166
0.312783
0.314418
0.316073
0.317745
0.319437
0.321146
0.322874
0.324618
0.32638
0.328158
0.329951
0.331757
0.333576
0.335407
0.337249
0.339102
0.340963
0.342833
0.344711
0.346595
0.348487
0.350384
0.352287
0.354195
0.356107
0.358024
0.359945
0.361869
0.363797
0.365729
0.367664
0.369602
0.371543
0.373488
0.375435
0.377385
0.379339
0.381295
0.383255
0.385218
0.387184
0.389154
0.391128
0.393105
0.395085
0.397068
0.399055
0.401044
0.403036
0.405031
0.407028
0.409027
0.411029
0.413033
0.415039
0.417048
0.41906
0.421075
0.4231
0.425149
0.427238
0.429384
0.431604
0.433915
0.436336
0.438885
0.441583
0.444451
0.447511
0.450789
0.45431
0.458102
0.462195
0.46662
0.471413
0.476611
0.482256
0.488394
0.495072
0.502343
0.510264
0.518899
0.528315
0.538587
0.549796
0.562031
0.575388
0.589973
0.605902
0.623301
0.642306
0.663069
0.685754
0.710539
0.737621
0.767215
0.799554
0.834894
0.873515
0.915722
0.961849
1.01226
1.06736
1.12757
1.19338
1.26531
1.34392
1.42985
1.52376
1.6264
-0.852067
-0.758675
-0.666543
-0.577782
-0.4942
-0.417173
-0.347587
-0.285846
-0.231937
-0.185523
-0.146042
-0.112805
-0.0850655
-0.0620828
-0.0431557
-0.0276458
-0.0149906
-0.00469611
0.00411724
0.0124561
0.02062
0.0286638
0.0368398
0.045428
0.054516
0.0639745
0.0736895
0.083607
0.0936553
0.10375
0.113816
0.123789
0.133612
0.143238
0.152624
0.161733
0.170533
0.178996
0.187103
0.194836
0.202184
0.209142
0.215708
0.221883
0.227673
0.233087
0.238135
0.24283
0.247186
0.251219
0.254944
0.258379
0.26154
0.264443
0.267105
0.269541
0.271767
0.27379
0.275662
0.277459
0.279203
0.280882
0.282498
0.284063
0.285589
0.287084
0.288558
0.290022
0.291479
0.292936
0.2944
0.295873
0.297351
0.298833
0.300322
0.301824
0.303341
0.304876
0.306426
0.307991
0.309573
0.311171
0.312788
0.314424
0.316078
0.317751
0.319442
0.321152
0.322879
0.324624
0.326386
0.328164
0.329957
0.331763
0.333582
0.335414
0.337256
0.339108
0.34097
0.34284
0.344717
0.346602
0.348493
0.350391
0.352294
0.354202
0.356114
0.358031
0.359952
0.361876
0.363805
0.365737
0.367672
0.36961
0.371551
0.373496
0.375443
0.377393
0.379347
0.381304
0.383263
0.385227
0.387193
0.389163
0.391137
0.393114
0.395094
0.397078
0.399064
0.401054
0.403046
0.405041
0.407038
0.409037
0.411039
0.413043
0.41505
0.417059
0.419071
0.421086
0.423111
0.425161
0.42725
0.429396
0.431616
0.433928
0.436348
0.438898
0.441596
0.444464
0.447525
0.450803
0.454324
0.458116
0.462209
0.466635
0.471428
0.476627
0.482272
0.488409
0.495088
0.502359
0.51028
0.518915
0.528331
0.538603
0.549812
0.562047
0.575404
0.58999
0.605918
0.623317
0.642322
0.663084
0.685769
0.710554
0.737636
0.767229
0.799567
0.834907
0.873527
0.915733
0.961859
1.01227
1.06736
1.12758
1.19339
1.26531
1.34393
1.42985
1.52376
1.6264
-0.852067
-0.758676
-0.666546
-0.577787
-0.494207
-0.417183
-0.347599
-0.28586
-0.231953
-0.185539
-0.14606
-0.112822
-0.0850833
-0.0621005
-0.043173
-0.0276625
-0.0150066
-0.00471131
0.00410287
0.0124425
0.0206072
0.0286516
0.0368283
0.0454171
0.0545055
0.0639644
0.0736797
0.0835974
0.0936459
0.103741
0.113807
0.12378
0.133604
0.14323
0.152616
0.161725
0.170525
0.178988
0.187095
0.194828
0.202177
0.209135
0.215701
0.221877
0.227667
0.233081
0.23813
0.242825
0.247182
0.251215
0.254941
0.258376
0.261538
0.264441
0.267103
0.26954
0.271767
0.273791
0.275663
0.27746
0.279205
0.280885
0.282501
0.284066
0.285592
0.287087
0.288562
0.290025
0.291483
0.29294
0.294404
0.295877
0.297355
0.298837
0.300327
0.301829
0.303346
0.304881
0.306431
0.307997
0.309578
0.311177
0.312794
0.31443
0.316084
0.317757
0.319448
0.321158
0.322886
0.324631
0.326393
0.328171
0.329964
0.33177
0.33359
0.335421
0.337263
0.339115
0.340977
0.342847
0.344725
0.34661
0.348501
0.350399
0.352302
0.35421
0.356123
0.35804
0.35996
0.361885
0.363813
0.365745
0.367681
0.369619
0.37156
0.373505
0.375452
0.377403
0.379357
0.381313
0.383273
0.385237
0.387203
0.389173
0.391147
0.393124
0.395105
0.397089
0.399075
0.401065
0.403058
0.405052
0.40705
0.409049
0.411051
0.413056
0.415063
0.417072
0.419084
0.421099
0.423125
0.425174
0.427264
0.429411
0.431631
0.433942
0.436363
0.438913
0.441611
0.44448
0.447541
0.450819
0.454341
0.458133
0.462227
0.466652
0.471446
0.476644
0.48229
0.488428
0.495106
0.502377
0.510299
0.518934
0.52835
0.538622
0.549831
0.562066
0.575423
0.590008
0.605937
0.623335
0.64234
0.663102
0.685786
0.710571
0.737652
0.767244
0.799582
0.834921
0.87354
0.915745
0.96187
1.01228
1.06737
1.12759
1.19339
1.26532
1.34393
1.42985
1.52376
1.6264
-0.852067
-0.758678
-0.66655
-0.577793
-0.494217
-0.417195
-0.347614
-0.285877
-0.231971
-0.185559
-0.14608
-0.112843
-0.0851042
-0.0621211
-0.0431932
-0.0276821
-0.0150253
-0.0047291
0.00408605
0.0124266
0.0205922
0.0286374
0.0368148
0.0454043
0.0544932
0.0639526
0.0736683
0.0835862
0.093635
0.10373
0.113796
0.123769
0.133593
0.14322
0.152606
0.161715
0.170515
0.178979
0.187086
0.194819
0.202168
0.209127
0.215693
0.221869
0.22766
0.233074
0.238123
0.242819
0.247176
0.25121
0.254936
0.258373
0.261535
0.264439
0.267102
0.26954
0.271767
0.273792
0.275665
0.277463
0.279208
0.280888
0.282504
0.28407
0.285595
0.287091
0.288566
0.29003
0.291487
0.292944
0.294409
0.295882
0.297361
0.298843
0.300332
0.301834
0.303352
0.304887
0.306437
0.308003
0.309585
0.311184
0.312801
0.314437
0.316091
0.317764
0.319456
0.321166
0.322893
0.324639
0.326401
0.328179
0.329972
0.331779
0.333598
0.335429
0.337272
0.339124
0.340986
0.342856
0.344734
0.346619
0.348511
0.350408
0.352312
0.35422
0.356132
0.358049
0.35997
0.361895
0.363824
0.365756
0.367691
0.36963
0.371571
0.373516
0.375463
0.377414
0.379368
0.381325
0.383285
0.385248
0.387215
0.389186
0.391159
0.393137
0.395117
0.397101
0.399088
0.401078
0.403071
0.405066
0.407063
0.409063
0.411066
0.41307
0.415077
0.417087
0.419099
0.421115
0.42314
0.42519
0.42728
0.429427
0.431648
0.43396
0.436381
0.438931
0.44163
0.444498
0.44756
0.450839
0.45436
0.458153
0.462247
0.466673
0.471466
0.476665
0.482311
0.488449
0.495127
0.502399
0.510321
0.518956
0.528372
0.538644
0.549853
0.562088
0.575445
0.59003
0.605959
0.623357
0.642361
0.663123
0.685806
0.71059
0.737671
0.767263
0.7996
0.834937
0.873555
0.915759
0.961883
1.01229
1.06738
1.12759
1.1934
1.26532
1.34393
1.42985
1.52376
1.6264
-0.852068
-0.75868
-0.666554
-0.577801
-0.494227
-0.417209
-0.347631
-0.285896
-0.231992
-0.185582
-0.146104
-0.112868
-0.0851287
-0.0621454
-0.0432169
-0.027705
-0.0150473
-0.00474999
0.0040663
0.012408
0.0205746
0.0286208
0.036799
0.0453892
0.0544787
0.0639387
0.0736548
0.0835731
0.0936222
0.103717
0.113784
0.123757
0.133581
0.143208
0.152594
0.161704
0.170504
0.178968
0.187075
0.194809
0.202158
0.209117
0.215684
0.22186
0.227651
0.233066
0.238116
0.242812
0.24717
0.251204
0.254931
0.258368
0.261531
0.264436
0.2671
0.269539
0.271767
0.273792
0.275666
0.277465
0.279211
0.280891
0.282508
0.284074
0.2856
0.287095
0.288571
0.290035
0.291492
0.29295
0.294415
0.295888
0.297367
0.298849
0.300339
0.301841
0.303359
0.304894
0.306445
0.308011
0.309592
0.311191
0.312809
0.314445
0.316099
0.317773
0.319465
0.321175
0.322902
0.324648
0.32641
0.328188
0.329981
0.331788
0.333608
0.335439
0.337282
0.339134
0.340996
0.342867
0.344745
0.34663
0.348522
0.350419
0.352323
0.354231
0.356144
0.358061
0.359982
0.361907
0.363836
0.365768
0.367703
0.369642
0.371584
0.373528
0.375476
0.377427
0.379381
0.381338
0.383299
0.385262
0.387229
0.3892
0.391174
0.393151
0.395132
0.397116
0.399104
0.401094
0.403086
0.405082
0.40708
0.40908
0.411082
0.413087
0.415095
0.417104
0.419117
0.421133
0.423159
0.425209
0.4273
0.429447
0.431668
0.43398
0.436402
0.438952
0.441651
0.44452
0.447582
0.450861
0.454383
0.458176
0.46227
0.466697
0.47149
0.47669
0.482335
0.488474
0.495153
0.502424
0.510347
0.518982
0.528398
0.53867
0.549879
0.562114
0.575471
0.590056
0.605985
0.623382
0.642386
0.663148
0.68583
0.710614
0.737694
0.767284
0.79962
0.834957
0.873573
0.915776
0.961898
1.0123
1.06739
1.1276
1.19341
1.26533
1.34394
1.42985
1.52376
1.6264
-0.852068
-0.758682
-0.666559
-0.57781
-0.49424
-0.417225
-0.347651
-0.285919
-0.232018
-0.185609
-0.146132
-0.112896
-0.0851575
-0.0621739
-0.0432448
-0.027732
-0.0150732
-0.00477458
0.00404306
0.012386
0.0205538
0.0286012
0.0367804
0.0453715
0.0544618
0.0639223
0.0736389
0.0835577
0.0936071
0.103703
0.113769
0.123743
0.133567
0.143194
0.152581
0.16169
0.170491
0.178955
0.187062
0.194796
0.202146
0.209105
0.215672
0.221849
0.227641
0.233057
0.238107
0.242804
0.247162
0.251197
0.254926
0.258363
0.261527
0.264433
0.267097
0.269537
0.271766
0.273794
0.275669
0.277468
0.279214
0.280895
0.282512
0.284079
0.285605
0.287101
0.288577
0.290041
0.291499
0.292956
0.294422
0.295895
0.297374
0.298857
0.300347
0.301849
0.303367
0.304902
0.306453
0.30802
0.309601
0.311201
0.312818
0.314454
0.316109
0.317783
0.319475
0.321185
0.322913
0.324658
0.326421
0.328199
0.329992
0.3318
0.333619
0.335451
0.337294
0.339146
0.341009
0.342879
0.344757
0.346642
0.348534
0.350432
0.352336
0.354244
0.356157
0.358075
0.359996
0.361921
0.36385
0.365782
0.367718
0.369657
0.371599
0.373543
0.375491
0.377442
0.379397
0.381354
0.383315
0.385278
0.387246
0.389216
0.391191
0.393168
0.395149
0.397134
0.399121
0.401112
0.403105
0.405101
0.407099
0.409099
0.411102
0.413107
0.415115
0.417125
0.419138
0.421154
0.423181
0.425231
0.427322
0.42947
0.431691
0.434004
0.436426
0.438976
0.441676
0.444546
0.447608
0.450887
0.45441
0.458203
0.462298
0.466725
0.471519
0.476718
0.482364
0.488503
0.495182
0.502454
0.510377
0.519012
0.528429
0.538701
0.54991
0.562145
0.575502
0.590087
0.606015
0.623412
0.642416
0.663176
0.685858
0.710641
0.73772
0.76731
0.799645
0.83498
0.873595
0.915796
0.961916
1.01232
1.06741
1.12761
1.19342
1.26534
1.34394
1.42986
1.52376
1.6264
-0.852069
-0.758684
-0.666565
-0.57782
-0.494255
-0.417245
-0.347674
-0.285946
-0.232047
-0.185641
-0.146165
-0.11293
-0.0851915
-0.0622076
-0.0432777
-0.0277639
-0.0151037
-0.00480359
0.00401564
0.0123601
0.0205294
0.028578
0.0367585
0.0453506
0.0544417
0.063903
0.0736202
0.0835394
0.0935893
0.103685
0.113752
0.123726
0.133551
0.143178
0.152564
0.161674
0.170475
0.17894
0.187047
0.194782
0.202132
0.209092
0.215659
0.221837
0.227629
0.233045
0.238096
0.242794
0.247154
0.25119
0.254918
0.258357
0.261522
0.264429
0.267095
0.269536
0.271766
0.273795
0.275671
0.277472
0.279219
0.2809
0.282518
0.284084
0.285611
0.287107
0.288583
0.290048
0.291506
0.292964
0.29443
0.295904
0.297382
0.298865
0.300356
0.301858
0.303377
0.304912
0.306464
0.30803
0.309612
0.311212
0.312829
0.314466
0.316121
0.317795
0.319487
0.321197
0.322925
0.324671
0.326434
0.328212
0.330006
0.331813
0.333633
0.335465
0.337308
0.339161
0.341023
0.342894
0.344772
0.346657
0.348549
0.350448
0.352351
0.35426
0.356173
0.358091
0.360012
0.361937
0.363866
0.365799
0.367735
0.369674
0.371616
0.373561
0.375509
0.377461
0.379415
0.381373
0.383333
0.385297
0.387265
0.389236
0.39121
0.393189
0.39517
0.397155
0.399143
0.401133
0.403127
0.405123
0.407121
0.409122
0.411125
0.413131
0.415139
0.417149
0.419162
0.421179
0.423206
0.425257
0.427349
0.429497
0.431719
0.434032
0.436454
0.439006
0.441706
0.444576
0.447639
0.450919
0.454442
0.458236
0.46233
0.466758
0.471552
0.476752
0.482399
0.488538
0.495217
0.50249
0.510412
0.519048
0.528465
0.538737
0.549946
0.562181
0.575538
0.590123
0.60605
0.623447
0.64245
0.663211
0.685892
0.710673
0.737751
0.76734
0.799673
0.835007
0.87362
0.915819
0.961937
1.01234
1.06742
1.12763
1.19343
1.26535
1.34395
1.42986
1.52376
1.6264
-0.852069
-0.758687
-0.666572
-0.577832
-0.494273
-0.417268
-0.347702
-0.285978
-0.232082
-0.185678
-0.146204
-0.11297
-0.0852317
-0.0622474
-0.0433166
-0.0278015
-0.0151398
-0.00483785
0.00398326
0.0123296
0.0205005
0.0285507
0.0367326
0.0453259
0.054418
0.0638801
0.0735981
0.0835179
0.0935682
0.103665
0.113732
0.123706
0.133531
0.143158
0.152545
0.161655
0.170457
0.178922
0.18703
0.194764
0.202115
0.209075
0.215644
0.221822
0.227615
0.233032
0.238084
0.242783
0.247143
0.25118
0.25491
0.25835
0.261516
0.264425
0.267092
0.269534
0.271766
0.273796
0.275674
0.277476
0.279224
0.280906
0.282524
0.284091
0.285618
0.287115
0.288591
0.290056
0.291515
0.292973
0.294439
0.295913
0.297393
0.298876
0.300367
0.30187
0.303388
0.304924
0.306476
0.308042
0.309625
0.311225
0.312843
0.314479
0.316135
0.317809
0.319501
0.321212
0.32294
0.324686
0.326449
0.328228
0.330021
0.331829
0.333649
0.335481
0.337324
0.339177
0.34104
0.342911
0.344789
0.346675
0.348567
0.350466
0.35237
0.354279
0.356192
0.35811
0.360031
0.361957
0.363886
0.365819
0.367755
0.369694
0.371637
0.373582
0.375531
0.377482
0.379437
0.381395
0.383356
0.38532
0.387288
0.389259
0.391234
0.393212
0.395194
0.397179
0.399167
0.401158
0.403152
0.405149
0.407147
0.409149
0.411152
0.413158
0.415167
0.417178
0.419192
0.421209
0.423236
0.425288
0.42738
0.429529
0.431751
0.434065
0.436488
0.43904
0.441741
0.444611
0.447675
0.450955
0.454479
0.458274
0.462369
0.466797
0.471592
0.476792
0.482439
0.488579
0.495259
0.502532
0.510454
0.51909
0.528507
0.53878
0.549989
0.562224
0.57558
0.590165
0.606092
0.623489
0.642491
0.663251
0.685931
0.710712
0.737788
0.767375
0.799707
0.835039
0.87365
0.915846
0.961962
1.01236
1.06744
1.12764
1.19344
1.26535
1.34395
1.42986
1.52376
1.6264
-0.85207
-0.758691
-0.666581
-0.577846
-0.494293
-0.417295
-0.347735
-0.286016
-0.232124
-0.185723
-0.146251
-0.113018
-0.0852792
-0.0622944
-0.0433626
-0.027846
-0.0151824
-0.00487835
0.00394497
0.0122934
0.0204663
0.0285184
0.0367019
0.0452967
0.0543901
0.0638532
0.0735719
0.0834925
0.0935434
0.10364
0.113708
0.123682
0.133508
0.143135
0.152523
0.161633
0.170435
0.1789
0.187009
0.194744
0.202095
0.209056
0.215625
0.221804
0.227598
0.233016
0.238069
0.242769
0.247131
0.251169
0.2549
0.258342
0.261509
0.264419
0.267088
0.269532
0.271766
0.273798
0.275678
0.277481
0.27923
0.280912
0.282531
0.284099
0.285626
0.287124
0.288601
0.290066
0.291525
0.292984
0.29445
0.295925
0.297404
0.298888
0.300379
0.301883
0.303402
0.304938
0.30649
0.308057
0.30964
0.31124
0.312858
0.314495
0.316151
0.317825
0.319518
0.321229
0.322958
0.324704
0.326467
0.328246
0.33004
0.331848
0.333668
0.3355
0.337344
0.339197
0.34106
0.342931
0.34481
0.346696
0.348588
0.350487
0.352391
0.3543
0.356214
0.358132
0.360054
0.36198
0.363909
0.365843
0.367779
0.369718
0.371661
0.373607
0.375556
0.377507
0.379463
0.381421
0.383382
0.385347
0.387315
0.389287
0.391262
0.393241
0.395223
0.397208
0.399197
0.401188
0.403183
0.405179
0.407179
0.40918
0.411184
0.413191
0.4152
0.417212
0.419226
0.421244
0.423272
0.425325
0.427417
0.429567
0.43179
0.434104
0.436528
0.439081
0.441782
0.444654
0.447718
0.450999
0.454523
0.458319
0.462415
0.466843
0.471639
0.47684
0.482487
0.488628
0.495308
0.502581
0.510504
0.51914
0.528558
0.53883
0.55004
0.562274
0.575631
0.590215
0.606142
0.623538
0.64254
0.663298
0.685977
0.710757
0.737832
0.767417
0.799747
0.835076
0.873685
0.915879
0.961991
1.01239
1.06747
1.12766
1.19346
1.26537
1.34396
1.42987
1.52377
1.6264
-0.852071
-0.758695
-0.666591
-0.577864
-0.494318
-0.417327
-0.347774
-0.28606
-0.232173
-0.185775
-0.146305
-0.113074
-0.0853354
-0.0623501
-0.043417
-0.0278986
-0.0152329
-0.00492627
0.00389967
0.0122506
0.0204259
0.0284802
0.0366657
0.0452622
0.054357
0.0638212
0.073541
0.0834624
0.093514
0.103611
0.11368
0.123655
0.13348
0.143108
0.152496
0.161607
0.170409
0.178875
0.186984
0.19472
0.202072
0.209034
0.215603
0.221783
0.227579
0.232998
0.238052
0.242753
0.247116
0.251156
0.254889
0.258332
0.261501
0.264413
0.267084
0.26953
0.271766
0.2738
0.275682
0.277487
0.279237
0.28092
0.28254
0.284108
0.285636
0.287134
0.288612
0.290077
0.291537
0.292996
0.294463
0.295938
0.297419
0.298903
0.300394
0.301898
0.303418
0.304954
0.306507
0.308074
0.309657
0.311258
0.312877
0.314514
0.31617
0.317845
0.319538
0.321249
0.322978
0.324725
0.326488
0.328267
0.330062
0.33187
0.333691
0.335523
0.337367
0.339221
0.341084
0.342955
0.344834
0.346721
0.348613
0.350512
0.352417
0.354326
0.35624
0.358159
0.360081
0.362007
0.363937
0.36587
0.367807
0.369747
0.37169
0.373636
0.375585
0.377537
0.379493
0.381451
0.383413
0.385378
0.387347
0.389319
0.391295
0.393274
0.395257
0.397243
0.399232
0.401224
0.403218
0.405216
0.407216
0.409218
0.411223
0.41323
0.41524
0.417252
0.419267
0.421286
0.423315
0.425368
0.427461
0.429611
0.431835
0.43415
0.436575
0.439129