/*--------------------------------*- C++ -*----------------------------------*\
| =========                 |                                                 |
| \\      /  F ield         | OpenFOAM: The Open Source CFD Toolbox           |
|  \\    /   O peration     | Version:  2212                                  |
|   \\  /    A nd           | Website:  www.openfoam.com                      |
|    \\/     M anipulation  |                                                 |
\*---------------------------------------------------------------------------*/
FoamFile
{
    version     2.0;
    format      ascii;
    arch        "LSB;label=32;scalar=64";
    class       volScalarField;
    location    "0";
    object      Cy;
}
// * * * * * * * * * * * * * * * * * * * * * * * * * * * * * * * * * * * * * //

dimensions      [0 1 0 0 0 0 0];

internalField   nonuniform List<scalar> 
10368
(
6.75187e-06
6.75187e-06
6.75186e-06
6.75186e-06
6.75186e-06
6.75186e-06
6.75186e-06
6.75186e-06
6.75186e-06
6.75186e-06
6.75187e-06
6.75187e-06
6.75187e-06
6.75188e-06
6.75189e-06
6.75168e-06
6.74118e-06
6.71067e-06
0.000770902
0.0031626
0.00703707
0.0118353
0.0169555
0.0218388
0.0261941
0.030106
0.0336532
0.0367839
0.0394984
0.0418588
0.0439237
0.0457357
0.0473261
0.048714
0.0499077
0.0509152
0.0517473
0.0524165
0.0529348
0.0533147
0.0535672
0.0537063
0.053747
0.0537008
0.0535794
0.053392
0.0531487
0.0528564
0.0525204
0.0521502
0.0517543
0.0513391
0.0509078
0.0504604
0.0500014
0.0495393
0.0490693
0.0485705
0.0480103
0.0473503
0.0465648
0.0456488
0.0446242
0.0435231
0.0423668
0.0411713
0.0399504
0.0387153
0.0374726
0.0362293
0.0349942
0.0337689
0.0325488
0.031333
0.0301258
0.0289331
0.02776
0.0266081
0.0254766
0.0243651
0.0232753
0.0222099
0.0211712
0.0201607
0.0191797
0.0182293
0.0173105
0.0164242
0.0155712
0.0147524
0.0139684
0.0132187
0.0125029
0.0118198
0.0111678
0.0105461
0.00995437
0.00939152
0.00885597
0.00834545
0.00785863
0.00739485
0.00695298
0.00653175
0.00612938
0.00574399
0.005374
0.00501825
0.00467611
0.00434706
0.00403037
0.00372528
0.00343079
0.00314598
0.00287029
0.00260353
0.00234611
0.00209866
0.00186146
0.0016345
0.00141841
0.00121481
0.00102564
0.000852464
0.000696772
0.000560043
0.000443486
0.000347608
0.000272051
0.000215937
0.00017744
0.000152429
0.000133775
0.000115779
9.74097e-05
7.88316e-05
5.76038e-05
3.27495e-05
1.31411e-05
6.61014e-06
6.61014e-06
6.61014e-06
6.61014e-06
6.61014e-06
6.61014e-06
6.61014e-06
6.61013e-06
6.61013e-06
6.61013e-06
6.61013e-06
6.61012e-06
6.61012e-06
6.61132e-06
6.62145e-06
6.64613e-06
6.68062e-06
6.71613e-06
6.74198e-06
6.75147e-06
6.75189e-06
6.75188e-06
6.75188e-06
6.75188e-06
6.75188e-06
6.75188e-06
6.75187e-06
6.75187e-06
6.75187e-06
6.75187e-06
6.75187e-06
6.75187e-06
6.75187e-06
6.75187e-06
6.75186e-06
6.75186e-06
6.75186e-06
6.75186e-06
6.75186e-06
6.75186e-06
6.75186e-06
6.75186e-06
6.75186e-06
6.75186e-06
6.75186e-06
6.75186e-06
6.75186e-06
6.75186e-06
6.75186e-06
6.75187e-06
6.75187e-06
6.75187e-06
6.75187e-06
2.0451e-05
2.0451e-05
2.0451e-05
2.0451e-05
2.0451e-05
2.0451e-05
2.0451e-05
2.0451e-05
2.0451e-05
2.0451e-05
2.0451e-05
2.0451e-05
2.0451e-05
2.0451e-05
2.0451e-05
2.04504e-05
2.04186e-05
2.03261e-05
0.000784406
0.00317594
0.00705024
0.0118483
0.0169683
0.0218515
0.0262066
0.0301183
0.0336654
0.036796
0.0395104
0.0418707
0.0439356
0.0457475
0.0473378
0.0487256
0.0499193
0.0509268
0.0517589
0.052428
0.0529464
0.0533263
0.0535787
0.0537178
0.0537586
0.0537123
0.0535909
0.0534036
0.0531603
0.052868
0.052532
0.0521617
0.0517659
0.0513507
0.0509194
0.050472
0.050013
0.049551
0.049081
0.0485822
0.048022
0.047362
0.0465765
0.0456606
0.044636
0.043535
0.0423787
0.0411832
0.0399624
0.0387273
0.0374846
0.0362415
0.0350064
0.0337811
0.0325611
0.0313453
0.0301381
0.0289455
0.0277724
0.0266205
0.0254891
0.0243777
0.0232878
0.0222225
0.0211838
0.0201734
0.0191924
0.0182421
0.0173233
0.0164371
0.0155841
0.0147653
0.0139813
0.0132316
0.0125158
0.0118328
0.0111808
0.0105591
0.00996743
0.00940459
0.00886906
0.00835856
0.00787176
0.007408
0.00696615
0.00654493
0.00614257
0.0057572
0.00538722
0.00503148
0.00468936
0.00436031
0.00404363
0.00373855
0.00344407
0.00315927
0.0028836
0.00261685
0.00235944
0.00211199
0.00187481
0.00164785
0.00143177
0.00122818
0.00103902
0.000865845
0.000710158
0.000573435
0.000456882
0.000361007
0.000285453
0.000229341
0.000190845
0.000165836
0.000147182
0.000129186
0.000110818
9.22404e-05
7.10134e-05
4.616e-05
2.65523e-05
2.00216e-05
2.00216e-05
2.00216e-05
2.00216e-05
2.00216e-05
2.00216e-05
2.00216e-05
2.00216e-05
2.00216e-05
2.00216e-05
2.00216e-05
2.00216e-05
2.00216e-05
2.00252e-05
2.00559e-05
2.01307e-05
2.02352e-05
2.03427e-05
2.0421e-05
2.04497e-05
2.0451e-05
2.0451e-05
2.0451e-05
2.0451e-05
2.0451e-05
2.0451e-05
2.0451e-05
2.0451e-05
2.0451e-05
2.0451e-05
2.0451e-05
2.0451e-05
2.0451e-05
2.0451e-05
2.0451e-05
2.0451e-05
2.0451e-05
2.0451e-05
2.0451e-05
2.0451e-05
2.0451e-05
2.0451e-05
2.0451e-05
2.0451e-05
2.0451e-05
2.0451e-05
2.0451e-05
2.0451e-05
2.0451e-05
2.0451e-05
2.0451e-05
2.0451e-05
2.0451e-05
3.4742e-05
3.4742e-05
3.4742e-05
3.4742e-05
3.4742e-05
3.4742e-05
3.4742e-05
3.4742e-05
3.4742e-05
3.4742e-05
3.4742e-05
3.4742e-05
3.4742e-05
3.4742e-05
3.4742e-05
3.47409e-05
3.46869e-05
3.45298e-05
0.000798494
0.00318986
0.00706397
0.0118618
0.0169817
0.0218647
0.0262196
0.0301311
0.0336781
0.0368086
0.0395229
0.0418831
0.0439479
0.0457598
0.04735
0.0487378
0.0499314
0.0509389
0.051771
0.0524401
0.0529584
0.0533383
0.0535907
0.0537298
0.0537706
0.0537244
0.0536029
0.0534156
0.0531723
0.05288
0.052544
0.0521738
0.0517779
0.0513628
0.0509315
0.0504841
0.0500252
0.0495632
0.0490932
0.0485944
0.0480343
0.0473743
0.0465888
0.0456729
0.0446484
0.0435474
0.0423911
0.0411957
0.0399749
0.0387399
0.0374973
0.0362541
0.0350191
0.0337938
0.0325739
0.0313582
0.030151
0.0289584
0.0277854
0.0266335
0.0255022
0.0243908
0.023301
0.0222357
0.021197
0.0201866
0.0192057
0.0182554
0.0173366
0.0164504
0.0155975
0.0147787
0.0139948
0.0132451
0.0125294
0.0118463
0.0111943
0.0105727
0.00998105
0.00941823
0.00888272
0.00837224
0.00788546
0.00742171
0.00697988
0.00655868
0.00615633
0.00577097
0.00540101
0.00504529
0.00470317
0.00437414
0.00405747
0.0037524
0.00345794
0.00317315
0.00289748
0.00263074
0.00237334
0.00212591
0.00188873
0.00166178
0.00144571
0.00124212
0.00105297
0.000879804
0.000724124
0.000587405
0.000470856
0.000374985
0.000299434
0.000243324
0.000204829
0.000179821
0.000161168
0.000143173
0.000124805
0.000106229
8.50023e-05
6.01499e-05
4.05429e-05
3.40125e-05
3.40125e-05
3.40125e-05
3.40125e-05
3.40125e-05
3.40125e-05
3.40125e-05
3.40125e-05
3.40125e-05
3.40125e-05
3.40125e-05
3.40124e-05
3.40124e-05
3.40187e-05
3.40708e-05
3.41978e-05
3.43753e-05
3.4558e-05
3.4691e-05
3.47398e-05
3.4742e-05
3.4742e-05
3.4742e-05
3.4742e-05
3.4742e-05
3.4742e-05
3.4742e-05
3.4742e-05
3.4742e-05
3.4742e-05
3.4742e-05
3.4742e-05
3.4742e-05
3.4742e-05
3.4742e-05
3.4742e-05
3.4742e-05
3.4742e-05
3.4742e-05
3.4742e-05
3.4742e-05
3.4742e-05
3.4742e-05
3.4742e-05
3.4742e-05
3.4742e-05
3.4742e-05
3.4742e-05
3.4742e-05
3.4742e-05
3.4742e-05
3.4742e-05
3.4742e-05
5.00383e-05
5.00383e-05
5.00383e-05
5.00383e-05
5.00383e-05
5.00383e-05
5.00383e-05
5.00383e-05
5.00383e-05
5.00383e-05
5.00383e-05
5.00383e-05
5.00384e-05
5.00384e-05
5.00384e-05
5.00368e-05
4.9959e-05
4.97328e-05
0.000813573
0.00320477
0.00707868
0.0118763
0.016996
0.0218788
0.0262335
0.0301449
0.0336918
0.0368221
0.0395363
0.0418964
0.0439611
0.045773
0.0473631
0.0487509
0.0499444
0.0509519
0.0517839
0.052453
0.0529713
0.0533512
0.0536036
0.0537427
0.0537834
0.0537372
0.0536158
0.0534285
0.0531852
0.0528929
0.0525569
0.0521867
0.0517909
0.0513758
0.0509445
0.0504971
0.0500382
0.0495762
0.0491062
0.0486074
0.0480473
0.0473874
0.046602
0.045686
0.0446616
0.0435606
0.0424044
0.041209
0.0399883
0.0387533
0.0375107
0.0362677
0.0350327
0.0338075
0.0325875
0.0313719
0.0301648
0.0289722
0.0277993
0.0266474
0.0255161
0.0244048
0.023315
0.0222498
0.0212112
0.0202008
0.0192199
0.0182696
0.0173509
0.0164647
0.0156118
0.0147931
0.0140092
0.0132596
0.0125438
0.0118608
0.0112089
0.0105873
0.00999562
0.00943283
0.00889734
0.00838688
0.00790012
0.00743639
0.00699457
0.00657339
0.00617106
0.00578572
0.00541577
0.00506006
0.00471796
0.00438894
0.00407229
0.00376723
0.00347278
0.003188
0.00291234
0.00264561
0.00238822
0.0021408
0.00190363
0.00167669
0.00146063
0.00125705
0.00106791
0.000894745
0.000739071
0.000602358
0.000485814
0.000389947
0.000314399
0.000258291
0.000219798
0.00019479
0.000176138
0.000158144
0.000139777
0.000121201
9.99755e-05
7.5124e-05
5.55178e-05
4.89876e-05
4.89876e-05
4.89876e-05
4.89876e-05
4.89876e-05
4.89876e-05
4.89876e-05
4.89876e-05
4.89876e-05
4.89876e-05
4.89876e-05
4.89876e-05
4.89876e-05
4.89965e-05
4.90717e-05
4.92546e-05
4.95102e-05
4.97734e-05
4.99649e-05
5.00352e-05
5.00384e-05
5.00384e-05
5.00384e-05
5.00384e-05
5.00384e-05
5.00384e-05
5.00384e-05
5.00384e-05
5.00384e-05
5.00383e-05
5.00383e-05
5.00383e-05
5.00383e-05
5.00383e-05
5.00383e-05
5.00383e-05
5.00383e-05
5.00383e-05
5.00383e-05
5.00383e-05
5.00383e-05
5.00383e-05
5.00383e-05
5.00383e-05
5.00383e-05
5.00383e-05
5.00383e-05
5.00383e-05
5.00383e-05
5.00383e-05
5.00383e-05
5.00383e-05
5.00384e-05
6.67828e-05
6.67828e-05
6.67828e-05
6.67828e-05
6.67828e-05
6.67828e-05
6.67828e-05
6.67828e-05
6.67828e-05
6.67828e-05
6.67828e-05
6.67828e-05
6.67828e-05
6.67828e-05
6.67828e-05
6.67807e-05
6.66768e-05
6.63749e-05
0.000830079
0.00322108
0.00709477
0.0118922
0.0170116
0.0218942
0.0262488
0.03016
0.0337067
0.0368369
0.039551
0.041911
0.0439756
0.0457874
0.0473774
0.0487652
0.0499587
0.0509661
0.0517981
0.0524671
0.0529854
0.0533653
0.0536177
0.0537568
0.0537975
0.0537513
0.0536299
0.0534426
0.0531993
0.0529071
0.052571
0.0522009
0.051805
0.05139
0.0509587
0.0505113
0.0500524
0.0495904
0.0491205
0.0486217
0.0480617
0.0474017
0.0466163
0.0457005
0.0446761
0.0435751
0.042419
0.0412236
0.040003
0.038768
0.0375255
0.0362825
0.0350476
0.0338224
0.0326025
0.0313869
0.0301799
0.0289873
0.0278144
0.0266627
0.0255314
0.0244201
0.0233304
0.0222652
0.0212266
0.0202163
0.0192355
0.0182852
0.0173666
0.0164804
0.0156275
0.0148089
0.0140249
0.0132754
0.0125597
0.0118767
0.0112248
0.0106032
0.0100116
0.00944881
0.00891335
0.00840291
0.00791617
0.00745246
0.00701066
0.0065895
0.00618718
0.00580186
0.00543193
0.00507623
0.00473415
0.00440514
0.0040885
0.00378346
0.00348902
0.00320425
0.00292861
0.00266189
0.00240451
0.0021571
0.00191994
0.00169301
0.00147696
0.00127339
0.00108425
0.000911101
0.000755434
0.000618726
0.000502187
0.000406324
0.00033078
0.000274674
0.000236183
0.000211177
0.000192525
0.000174532
0.000156166
0.000137591
0.000116366
9.15157e-05
7.19104e-05
6.53804e-05
6.53804e-05
6.53804e-05
6.53804e-05
6.53804e-05
6.53804e-05
6.53804e-05
6.53804e-05
6.53804e-05
6.53804e-05
6.53804e-05
6.53804e-05
6.53804e-05
6.53924e-05
6.54926e-05
6.57368e-05
6.60779e-05
6.64292e-05
6.66848e-05
6.67786e-05
6.67828e-05
6.67828e-05
6.67828e-05
6.67828e-05
6.67828e-05
6.67828e-05
6.67828e-05
6.67828e-05
6.67828e-05
6.67828e-05
6.67828e-05
6.67828e-05
6.67828e-05
6.67828e-05
6.67828e-05
6.67828e-05
6.67828e-05
6.67828e-05
6.67828e-05
6.67828e-05
6.67828e-05
6.67828e-05
6.67828e-05
6.67828e-05
6.67828e-05
6.67828e-05
6.67828e-05
6.67828e-05
6.67828e-05
6.67828e-05
6.67828e-05
6.67828e-05
6.67828e-05
8.54598e-05
8.54598e-05
8.54598e-05
8.54598e-05
8.54598e-05
8.54598e-05
8.54598e-05
8.54598e-05
8.54598e-05
8.54598e-05
8.54598e-05
8.54598e-05
8.54599e-05
8.54599e-05
8.54599e-05
8.54572e-05
8.53243e-05
8.49379e-05
0.000848491
0.00323927
0.00711273
0.0119099
0.0170291
0.0219114
0.0262658
0.0301768
0.0337233
0.0368534
0.0395673
0.0419272
0.0439918
0.0458034
0.0473934
0.0487811
0.0499745
0.0509819
0.0518139
0.0524829
0.0530012
0.053381
0.0536334
0.0537725
0.0538132
0.053767
0.0536456
0.0534583
0.053215
0.0529228
0.0525868
0.0522166
0.0518208
0.0514058
0.0509745
0.0505272
0.0500683
0.0496063
0.0491364
0.0486377
0.0480776
0.0474178
0.0466324
0.0457166
0.0446922
0.0435913
0.0424352
0.0412399
0.0400193
0.0387844
0.037542
0.036299
0.0350642
0.0338391
0.0326192
0.0314037
0.0301967
0.0290042
0.0278314
0.0266797
0.0255484
0.0244372
0.0233475
0.0222824
0.0212439
0.0202336
0.0192528
0.0183026
0.017384
0.0164979
0.0156451
0.0148264
0.0140425
0.013293
0.0125774
0.0118944
0.0112425
0.010621
0.0100294
0.00946664
0.0089312
0.00842079
0.00793407
0.00747038
0.00702861
0.00660746
0.00620517
0.00581986
0.00544995
0.00509427
0.0047522
0.00442322
0.00410659
0.00380156
0.00350714
0.00322238
0.00294675
0.00268005
0.00242268
0.00217528
0.00193814
0.00171122
0.00149518
0.00129162
0.00110249
0.000929345
0.000773685
0.000636984
0.000520451
0.000424593
0.000349052
0.000292949
0.00025446
0.000229455
0.000210804
0.000192812
0.000174446
0.000155872
0.000134648
0.000109799
9.01949e-05
8.36653e-05
8.36653e-05
8.36653e-05
8.36653e-05
8.36653e-05
8.36653e-05
8.36653e-05
8.36653e-05
8.36653e-05
8.36653e-05
8.36653e-05
8.36653e-05
8.36653e-05
8.36806e-05
8.38088e-05
8.41213e-05
8.45578e-05
8.50073e-05
8.53344e-05
8.54545e-05
8.54599e-05
8.54599e-05
8.54599e-05
8.54599e-05
8.54599e-05
8.54599e-05
8.54599e-05
8.54598e-05
8.54598e-05
8.54598e-05
8.54598e-05
8.54598e-05
8.54598e-05
8.54598e-05
8.54598e-05
8.54598e-05
8.54598e-05
8.54598e-05
8.54598e-05
8.54598e-05
8.54598e-05
8.54598e-05
8.54598e-05
8.54598e-05
8.54598e-05
8.54598e-05
8.54598e-05
8.54598e-05
8.54598e-05
8.54598e-05
8.54598e-05
8.54598e-05
8.54598e-05
0.00010661
0.00010661
0.00010661
0.00010661
0.00010661
0.00010661
0.00010661
0.00010661
0.00010661
0.00010661
0.00010661
0.00010661
0.00010661
0.00010661
0.00010661
0.000106607
0.000106441
0.000105959
0.00086934
0.00325988
0.00713306
0.01193
0.0170489
0.0219309
0.026285
0.0301958
0.0337422
0.036872
0.0395858
0.0419456
0.04401
0.0458216
0.0474115
0.0487991
0.0499925
0.0509998
0.0518318
0.0525008
0.053019
0.0533988
0.0536512
0.0537902
0.053831
0.0537848
0.0536634
0.0534761
0.0532328
0.0529406
0.0526047
0.0522345
0.0518387
0.0514237
0.0509924
0.0505452
0.0500863
0.0496244
0.0491545
0.0486558
0.0480957
0.0474359
0.0466506
0.0457348
0.0447105
0.0436097
0.0424536
0.0412584
0.0400379
0.038803
0.0375606
0.0363177
0.035083
0.0338579
0.0326381
0.0314227
0.0302157
0.0290233
0.0278506
0.0266989
0.0255677
0.0244565
0.0233669
0.0223018
0.0212634
0.0202532
0.0192724
0.0183223
0.0174037
0.0165177
0.0156649
0.0148463
0.0140625
0.013313
0.0125974
0.0119144
0.0112626
0.0106411
0.0100495
0.00948683
0.00895141
0.00844103
0.00795434
0.00749068
0.00704893
0.00662781
0.00622554
0.00584025
0.00547036
0.0051147
0.00477265
0.00444368
0.00412707
0.00382206
0.00352765
0.00324292
0.0029673
0.00270061
0.00244326
0.00219587
0.00195874
0.00173184
0.00151581
0.00131226
0.00112314
0.000950004
0.000794352
0.00065766
0.000541133
0.00044528
0.000369743
0.000313643
0.000275156
0.000250153
0.000231503
0.000213512
0.000195147
0.000176574
0.000155352
0.000130504
0.000110901
0.000104371
0.000104371
0.000104371
0.000104371
0.000104371
0.000104371
0.000104371
0.000104371
0.000104371
0.000104371
0.000104371
0.000104371
0.000104371
0.00010439
0.00010455
0.00010494
0.000105485
0.000106046
0.000106454
0.000106603
0.00010661
0.00010661
0.00010661
0.00010661
0.00010661
0.00010661
0.00010661
0.00010661
0.00010661
0.00010661
0.00010661
0.00010661
0.00010661
0.00010661
0.00010661
0.00010661
0.00010661
0.00010661
0.00010661
0.00010661
0.00010661
0.00010661
0.00010661
0.00010661
0.00010661
0.00010661
0.00010661
0.00010661
0.00010661
0.00010661
0.00010661
0.00010661
0.00010661
0.000130845
0.000130845
0.000130845
0.000130845
0.000130845
0.000130845
0.000130845
0.000130845
0.000130845
0.000130845
0.000130845
0.000130845
0.000130845
0.000130845
0.000130845
0.000130841
0.000130638
0.000130046
0.000893231
0.00328349
0.00715635
0.0119529
0.0170715
0.0219532
0.0263071
0.0302177
0.0337638
0.0368934
0.0396071
0.0419667
0.044031
0.0458424
0.0474323
0.0488198
0.0500131
0.0510203
0.0518523
0.0525212
0.0530394
0.0534192
0.0536715
0.0538106
0.0538514
0.0538052
0.0536838
0.0534965
0.0532532
0.0529611
0.0526251
0.052255
0.0518592
0.0514442
0.051013
0.0505657
0.0501069
0.049645
0.0491751
0.0486765
0.0481165
0.0474567
0.0466714
0.0457556
0.0447314
0.0436307
0.0424747
0.0412796
0.0400591
0.0388243
0.037582
0.0363392
0.0351045
0.0338795
0.0326598
0.0314444
0.0302376
0.0290452
0.0278725
0.026721
0.0255899
0.0244787
0.0233892
0.0223242
0.0212858
0.0202757
0.019295
0.0183449
0.0174264
0.0165404
0.0156877
0.0148691
0.0140853
0.0133359
0.0126203
0.0119374
0.0112856
0.0106642
0.0100726
0.00950996
0.00897458
0.00846423
0.00797757
0.00751394
0.00707221
0.00665112
0.00624887
0.00586361
0.00549375
0.00513811
0.00479608
0.00446713
0.00415055
0.00384555
0.00355116
0.00326644
0.00299085
0.00272417
0.00246684
0.00221947
0.00198235
0.00175546
0.00153944
0.00133591
0.0011468
0.000973677
0.000818035
0.000681351
0.000564831
0.000468985
0.000393453
0.000337357
0.000298872
0.00027387
0.000255221
0.000237231
0.000218868
0.000200296
0.000179075
0.000154229
0.000134627
0.000128098
0.000128098
0.000128098
0.000128098
0.000128098
0.000128098
0.000128098
0.000128098
0.000128098
0.000128098
0.000128098
0.000128098
0.000128098
0.000128121
0.000128318
0.000128796
0.000129464
0.000130153
0.000130653
0.000130837
0.000130845
0.000130845
0.000130845
0.000130845
0.000130845
0.000130845
0.000130845
0.000130845
0.000130845
0.000130845
0.000130845
0.000130845
0.000130845
0.000130845
0.000130845
0.000130845
0.000130845
0.000130845
0.000130845
0.000130845
0.000130845
0.000130845
0.000130845
0.000130845
0.000130845
0.000130845
0.000130845
0.000130845
0.000130845
0.000130845
0.000130845
0.000130845
0.000130845
0.000158867
0.000158867
0.000158867
0.000158867
0.000158867
0.000158867
0.000158867
0.000158867
0.000158867
0.000158867
0.000158867
0.000158867
0.000158867
0.000158867
0.000158867
0.000158862
0.000158615
0.000157897
0.000920854
0.00331079
0.00718329
0.0119795
0.0170977
0.0219791
0.0263326
0.0302429
0.0337887
0.0369182
0.0396316
0.041991
0.0440552
0.0458665
0.0474563
0.0488437
0.0500369
0.0510441
0.051876
0.0525449
0.053063
0.0534428
0.0536951
0.0538342
0.0538749
0.0538287
0.0537073
0.0535201
0.0532768
0.0529847
0.0526488
0.0522787
0.0518829
0.051468
0.0510368
0.0505895
0.0501308
0.0496689
0.049199
0.0487004
0.0481405
0.0474807
0.0466955
0.0457798
0.0447556
0.043655
0.0424991
0.041304
0.0400836
0.038849
0.0376067
0.036364
0.0351294
0.0339045
0.0326849
0.0314696
0.0302628
0.0290706
0.0278979
0.0267464
0.0256154
0.0245044
0.0234149
0.02235
0.0213117
0.0203016
0.019321
0.018371
0.0174525
0.0165666
0.0157139
0.0148955
0.0141117
0.0133624
0.0126468
0.011964
0.0113122
0.0106908
0.0100993
0.0095367
0.00900136
0.00849105
0.00800442
0.00754083
0.00709914
0.00667807
0.00627586
0.00589063
0.00552078
0.00516518
0.00482317
0.00449425
0.00417768
0.00387271
0.00357834
0.00329365
0.00301807
0.00275142
0.0024941
0.00224675
0.00200964
0.00178277
0.00156677
0.00136325
0.00117416
0.00100105
0.000845418
0.000708744
0.000592233
0.000496393
0.000420867
0.000364775
0.000326293
0.000301293
0.000282645
0.000264657
0.000246295
0.000227724
0.000206505
0.00018166
0.00016206
0.000155531
0.000155531
0.000155531
0.000155531
0.000155531
0.000155531
0.000155531
0.000155531
0.000155531
0.000155531
0.000155531
0.000155531
0.000155531
0.00015556
0.000155798
0.000156379
0.000157191
0.000158026
0.000158634
0.000158857
0.000158867
0.000158867
0.000158867
0.000158867
0.000158867
0.000158867
0.000158867
0.000158867
0.000158867
0.000158867
0.000158867
0.000158867
0.000158867
0.000158867
0.000158867
0.000158867
0.000158867
0.000158867
0.000158867
0.000158867
0.000158867
0.000158867
0.000158867
0.000158867
0.000158867
0.000158867
0.000158867
0.000158867
0.000158867
0.000158867
0.000158867
0.000158867
0.000158867
0.000191487
0.000191487
0.000191487
0.000191487
0.000191487
0.000191487
0.000191487
0.000191487
0.000191487
0.000191487
0.000191487
0.000191487
0.000191487
0.000191487
0.000191487
0.000191481
0.000191183
0.000190317
0.000953009
0.00334257
0.00721464
0.0120104
0.0171282
0.0220091
0.0263623
0.0302722
0.0338178
0.036947
0.0396602
0.0420194
0.0440834
0.0458946
0.0474842
0.0488715
0.0500646
0.0510717
0.0519036
0.0525724
0.0530905
0.0534702
0.0537226
0.0538616
0.0539023
0.0538561
0.0537348
0.0535475
0.0533043
0.0530122
0.0526763
0.0523062
0.0519105
0.0514956
0.0510644
0.0506172
0.0501585
0.0496966
0.0492269
0.0487283
0.0481684
0.0475086
0.0467235
0.0458079
0.0447838
0.0436832
0.0425274
0.0413325
0.0401122
0.0388776
0.0376355
0.0363929
0.0351584
0.0339336
0.0327141
0.0314989
0.0302922
0.0291
0.0279275
0.0267761
0.0256452
0.0245342
0.0234449
0.02238
0.0213418
0.0203318
0.0193513
0.0184014
0.017483
0.0165971
0.0157445
0.0149261
0.0141425
0.0133932
0.0126777
0.0119949
0.0113432
0.0107218
0.0101304
0.00956783
0.00903254
0.00852227
0.00803569
0.00757213
0.00713048
0.00670945
0.00630727
0.00592207
0.00555226
0.00519668
0.00485471
0.00452581
0.00420927
0.00390433
0.00360998
0.00332531
0.00304976
0.00278313
0.00252583
0.0022785
0.00204142
0.00181457
0.00159859
0.00139508
0.00120601
0.00103291
0.000877293
0.000740631
0.00062413
0.000528298
0.000452778
0.000396691
0.000358213
0.000333215
0.000314569
0.000296582
0.000278221
0.000259652
0.000238435
0.000213593
0.000193994
0.000187466
0.000187466
0.000187466
0.000187466
0.000187466
0.000187466
0.000187466
0.000187466
0.000187466
0.000187466
0.000187466
0.000187466
0.000187466
0.0001875
0.000187787
0.000188487
0.000189466
0.000190473
0.000191206
0.000191475
0.000191487
0.000191487
0.000191487
0.000191487
0.000191487
0.000191487
0.000191487
0.000191487
0.000191487
0.000191487
0.000191487
0.000191487
0.000191487
0.000191487
0.000191487
0.000191487
0.000191487
0.000191487
0.000191487
0.000191487
0.000191487
0.000191487
0.000191487
0.000191487
0.000191487
0.000191487
0.000191487
0.000191487
0.000191487
0.000191487
0.000191487
0.000191487
0.000191487
0.000229648
0.000229647
0.000229647
0.000229647
0.000229647
0.000229647
0.000229647
0.000229647
0.000229647
0.000229647
0.000229647
0.000229648
0.000229648
0.000229648
0.000229648
0.000229641
0.000229283
0.000228245
0.000990627
0.00337975
0.00725133
0.0120466
0.0171638
0.0220443
0.0263971
0.0303066
0.0338518
0.0369806
0.0396936
0.0420526
0.0441164
0.0459274
0.0475168
0.048904
0.0500971
0.0511041
0.0519358
0.0526046
0.0531227
0.0535024
0.0537547
0.0538937
0.0539344
0.0538882
0.0537669
0.0535796
0.0533364
0.0530443
0.0527085
0.0523385
0.0519428
0.0515279
0.0510968
0.0506496
0.0501909
0.0497291
0.0492594
0.0487609
0.048201
0.0475414
0.0467563
0.0458408
0.0448168
0.0437163
0.0425606
0.0413658
0.0401456
0.0389112
0.0376692
0.0364267
0.0351923
0.0339676
0.0327482
0.0315331
0.0303266
0.0291345
0.0279621
0.0268108
0.02568
0.0245692
0.0234799
0.0224151
0.021377
0.0203672
0.0193867
0.0184369
0.0175186
0.0166329
0.0157804
0.014962
0.0141784
0.0134292
0.0127138
0.0120311
0.0113795
0.0107582
0.0101668
0.00960426
0.00906902
0.0085588
0.00807226
0.00760875
0.00716714
0.00674616
0.00634402
0.00595886
0.00558908
0.00523354
0.0048916
0.00456274
0.00424623
0.00394132
0.003647
0.00336236
0.00308683
0.00282023
0.00256296
0.00231565
0.00207859
0.00185176
0.0016358
0.00143232
0.00124326
0.00107019
0.000914584
0.000777935
0.000661446
0.000565624
0.000490111
0.00043403
0.000395555
0.00037056
0.000351916
0.00033393
0.000315572
0.000297005
0.000275789
0.00025095
0.000231353
0.000224825
0.000224825
0.000224825
0.000224825
0.000224825
0.000224825
0.000224825
0.000224825
0.000224825
0.000224825
0.000224825
0.000224825
0.000224825
0.000224866
0.000225211
0.000226051
0.000227224
0.000228432
0.000229311
0.000229633
0.000229648
0.000229648
0.000229648
0.000229648
0.000229648
0.000229648
0.000229648
0.000229648
0.000229648
0.000229648
0.000229648
0.000229648
0.000229647
0.000229647
0.000229647
0.000229647
0.000229647
0.000229647
0.000229647
0.000229647
0.000229647
0.000229647
0.000229647
0.000229647
0.000229647
0.000229647
0.000229647
0.000229647
0.000229647
0.000229647
0.000229647
0.000229648
0.000229648
0.000274454
0.000274454
0.000274454
0.000274454
0.000274454
0.000274454
0.000274454
0.000274454
0.000274454
0.000274454
0.000274454
0.000274454
0.000274454
0.000274454
0.000274454
0.000274446
0.000274019
0.000272778
0.0010348
0.0034234
0.0072944
0.0120891
0.0172057
0.0220856
0.0264378
0.0303469
0.0338917
0.0370202
0.0397328
0.0420915
0.0441551
0.0459659
0.0475552
0.0489422
0.0501352
0.0511421
0.0519737
0.0526424
0.0531604
0.0535401
0.0537923
0.0539314
0.0539721
0.0539259
0.0538045
0.0536173
0.0533742
0.0530821
0.0527463
0.0523763
0.0519807
0.0515659
0.0511348
0.0506877
0.0502291
0.0497673
0.0492976
0.0487991
0.0482394
0.0475798
0.0467948
0.0458794
0.0448555
0.0437551
0.0425996
0.0414049
0.0401848
0.0389506
0.0377087
0.0364663
0.0352321
0.0340075
0.0327883
0.0315733
0.0303669
0.029175
0.0280027
0.0268516
0.0257209
0.0246102
0.023521
0.0224564
0.0214184
0.0204087
0.0194283
0.0184786
0.0175604
0.0166748
0.0158224
0.0150041
0.0142207
0.0134715
0.0127562
0.0120736
0.011422
0.0108008
0.0102095
0.00964702
0.00911184
0.00860168
0.00811521
0.00765175
0.00721019
0.00678926
0.00638716
0.00600205
0.00563232
0.00527682
0.00493492
0.00460609
0.00428962
0.00398475
0.00369047
0.00340586
0.00313036
0.00286379
0.00260655
0.00235927
0.00212224
0.00189544
0.0016795
0.00147604
0.00128701
0.00111395
0.000958369
0.000821736
0.00070526
0.00060945
0.000533946
0.000477871
0.000439401
0.000414408
0.000395767
0.000377783
0.000359427
0.000340862
0.000319649
0.000294812
0.000275218
0.000268691
0.000268691
0.000268691
0.000268691
0.000268691
0.000268691
0.000268691
0.000268691
0.000268691
0.000268691
0.000268691
0.000268691
0.000268691
0.00026874
0.000269152
0.000270155
0.000271557
0.000273001
0.000274051
0.000274437
0.000274454
0.000274454
0.000274454
0.000274454
0.000274454
0.000274454
0.000274454
0.000274454
0.000274454
0.000274454
0.000274454
0.000274454
0.000274454
0.000274454
0.000274454
0.000274454
0.000274454
0.000274454
0.000274454
0.000274454
0.000274454
0.000274454
0.000274454
0.000274454
0.000274454
0.000274454
0.000274454
0.000274454
0.000274454
0.000274454
0.000274454
0.000274454
0.000274454
0.000327203
0.000327203
0.000327203
0.000327203
0.000327203
0.000327203
0.000327203
0.000327203
0.000327203
0.000327203
0.000327203
0.000327203
0.000327203
0.000327203
0.000327203
0.000327193
0.000326684
0.000325205
0.0010868
0.00347479
0.0073451
0.0121391
0.017255
0.0221342
0.0264859
0.0303944
0.0339387
0.0370668
0.039779
0.0421374
0.0442007
0.0460113
0.0476003
0.0489872
0.05018
0.0511868
0.0520183
0.052687
0.0532049
0.0535845
0.0538367
0.0539757
0.0540164
0.0539702
0.0538489
0.0536617
0.0534186
0.0531266
0.0527908
0.0524209
0.0520253
0.0516105
0.0511795
0.0507325
0.0502739
0.0498122
0.0493426
0.0488442
0.0482845
0.047625
0.0468401
0.0459248
0.0449011
0.0438008
0.0426455
0.0414509
0.040231
0.0389969
0.0377552
0.036513
0.0352789
0.0340546
0.0328355
0.0316207
0.0304144
0.0292227
0.0280506
0.0268996
0.025769
0.0246585
0.0235695
0.022505
0.0214671
0.0204575
0.0194773
0.0185278
0.0176097
0.0167242
0.0158719
0.0150538
0.0142704
0.0135213
0.0128061
0.0121236
0.0114721
0.010851
0.0102597
0.00969736
0.00916226
0.00865217
0.00816576
0.00770237
0.00726088
0.00684
0.00643796
0.0060529
0.00568322
0.00532777
0.00498592
0.00465714
0.00434071
0.00403588
0.00374163
0.00345706
0.00318161
0.00291507
0.00265787
0.00241062
0.00217363
0.00194686
0.00173095
0.00152752
0.00133851
0.00116548
0.00100991
0.000873301
0.000756842
0.000661044
0.000585551
0.000529484
0.000491019
0.00046603
0.000447391
0.00042941
0.000411056
0.000392494
0.000371284
0.00034645
0.000326858
0.000320333
0.000320333
0.000320333
0.000320333
0.000320333
0.000320333
0.000320333
0.000320333
0.000320333
0.000320333
0.000320333
0.000320333
0.000320333
0.000320391
0.000320882
0.000322078
0.00032375
0.000325471
0.000326723
0.000327183
0.000327203
0.000327203
0.000327203
0.000327203
0.000327203
0.000327203
0.000327203
0.000327203
0.000327203
0.000327203
0.000327203
0.000327203
0.000327203
0.000327203
0.000327203
0.000327203
0.000327203
0.000327203
0.000327203
0.000327203
0.000327203
0.000327203
0.000327203
0.000327203
0.000327203
0.000327203
0.000327203
0.000327203
0.000327203
0.000327203
0.000327203
0.000327203
0.000327203
0.000389421
0.000389421
0.000389421
0.000389421
0.000389421
0.000389421
0.000389421
0.000389421
0.000389421
0.000389421
0.000389421
0.000389421
0.000389421
0.000389421
0.000389422
0.000389409
0.000388804
0.000387043
0.00114813
0.0035354
0.00740491
0.0121981
0.0173132
0.0221916
0.0265425
0.0304504
0.0339941
0.0371217
0.0398335
0.0421915
0.0442544
0.0460648
0.0476536
0.0490402
0.0502329
0.0512395
0.0520709
0.0527395
0.0532573
0.0536368
0.053889
0.054028
0.0540687
0.0540226
0.0539012
0.0537141
0.053471
0.053179
0.0528433
0.0524734
0.052078
0.0516632
0.0512323
0.0507853
0.0503268
0.0498652
0.0493957
0.0488973
0.0483377
0.0476783
0.0468935
0.0459784
0.0449548
0.0438548
0.0426996
0.0415052
0.0402855
0.0390516
0.0378101
0.0365681
0.0353342
0.03411
0.0328911
0.0316765
0.0304705
0.0292789
0.028107
0.0269562
0.0258258
0.0247154
0.0236266
0.0225623
0.0215246
0.0205151
0.0195351
0.0185857
0.0176678
0.0167824
0.0159303
0.0151123
0.014329
0.0135801
0.012865
0.0121826
0.0115312
0.0109102
0.010319
0.00975675
0.00922173
0.00871173
0.0082254
0.00776208
0.00732066
0.00689984
0.00649787
0.00611288
0.00574326
0.00538786
0.00504607
0.00471734
0.00440097
0.00409618
0.00380199
0.00351746
0.00324205
0.00297556
0.0027184
0.00247119
0.00223424
0.0020075
0.00179163
0.00158823
0.00139926
0.00122625
0.00107071
0.000934123
0.000817682
0.0007219
0.000646419
0.000590361
0.000551903
0.000526918
0.000508282
0.000490304
0.000471953
0.000453394
0.000432187
0.000407358
0.000387769
0.000381245
0.000381245
0.000381245
0.000381245
0.000381245
0.000381245
0.000381245
0.000381245
0.000381245
0.000381245
0.000381244
0.000381244
0.000381244
0.000381314
0.000381898
0.000383322
0.000385311
0.000387359
0.00038885
0.000389397
0.000389422
0.000389421
0.000389421
0.000389421
0.000389421
0.000389421
0.000389421
0.000389421
0.000389421