/*--------------------------------*- C++ -*----------------------------------*\
| =========                 |                                                 |
| \\      /  F ield         | OpenFOAM: The Open Source CFD Toolbox           |
|  \\    /   O peration     | Version:  2212                                  |
|   \\  /    A nd           | Website:  www.openfoam.com                      |
|    \\/     M anipulation  |                                                 |
\*---------------------------------------------------------------------------*/
FoamFile
{
    version     2.0;
    format      ascii;
    arch        "LSB;label=32;scalar=64";
    class       volScalarField;
    location    "1";
    object      nut;
}
// * * * * * * * * * * * * * * * * * * * * * * * * * * * * * * * * * * * * * //

dimensions      [0 2 -1 0 0 0 0];

internalField   nonuniform List<scalar> 
10368
(
5.10898e-10
5.38048e-10
5.29481e-10
5.20109e-10
5.11088e-10
5.0121e-10
4.88468e-10
4.7013e-10
4.43353e-10
4.05855e-10
3.565e-10
2.96501e-10
2.28615e-10
1.5805e-10
9.18587e-11
3.64846e-11
9.01118e-12
5.73287e-12
5.33152e-12
3.40949e-11
2.17036e-10
6.88487e-10
1.40103e-09
1.94991e-09
1.99435e-09
2.1407e-09
2.33945e-09
2.28145e-09
2.12398e-09
1.99636e-09
1.89745e-09
1.81828e-09
1.76175e-09
1.72112e-09
1.67441e-09
1.62525e-09
1.57511e-09
1.52667e-09
1.47474e-09
1.42369e-09
1.36203e-09
1.30444e-09
1.25072e-09
1.1935e-09
1.13789e-09
1.07555e-09
1.01602e-09
9.46294e-10
8.58015e-10
7.74694e-10
6.91262e-10
6.05121e-10
5.06925e-10
3.82344e-10
2.59577e-10
1.67761e-10
7.92841e-11
8.42647e-12
1.48804e-11
2.61061e-11
1.3704e-11
7.78343e-12
5.19173e-12
3.47012e-12
2.52553e-12
1.83368e-12
1.4057e-12
1.11022e-12
9.21457e-13
7.72301e-13
6.88856e-13
6.7178e-13
6.68595e-13
6.48692e-13
6.28439e-13
6.12237e-13
6.1777e-13
6.49132e-13
6.94178e-13
7.39485e-13
7.81439e-13
8.2933e-13
8.84259e-13
9.50209e-13
1.02154e-12
1.10365e-12
1.18829e-12
1.28394e-12
1.3813e-12
1.4843e-12
1.61159e-12
1.75004e-12
1.91508e-12
2.11406e-12
2.32372e-12
2.53869e-12
2.78474e-12
3.05624e-12
3.39155e-12
3.74212e-12
4.09195e-12
4.47731e-12
4.88668e-12
5.35333e-12
5.87294e-12
6.43446e-12
7.02409e-12
7.61578e-12
8.21693e-12
8.85442e-12
9.52067e-12
1.02467e-11
1.10243e-11
1.18224e-11
1.26353e-11
1.3411e-11
1.41475e-11
1.48903e-11
1.56876e-11
1.64471e-11
1.70773e-11
1.75644e-11
1.8009e-11
1.83888e-11
1.86999e-11
1.89591e-11
1.92178e-11
1.95612e-11
1.9965e-11
2.04863e-11
2.12901e-11
2.28669e-11
2.49466e-11
2.66167e-11
2.78564e-11
2.93871e-11
3.13396e-11
3.14465e-11
2.99203e-11
3.07191e-11
3.2683e-11
3.37666e-11
3.48816e-11
3.58451e-11
3.68152e-11
3.77526e-11
3.86944e-11
3.96306e-11
4.05706e-11
4.14923e-11
4.24091e-11
4.32565e-11
4.40684e-11
4.50097e-11
4.61892e-11
4.73736e-11
4.82632e-11
4.83315e-11
4.73378e-11
4.54048e-11
4.24963e-11
3.84598e-11
3.31452e-11
2.66811e-11
1.94511e-11
1.22063e-11
6.03944e-12
2.1207e-12
3.34843e-12
1.04057e-11
2.3564e-11
4.24942e-11
6.58227e-11
9.16265e-11
1.18012e-10
1.43632e-10
1.67831e-10
1.90367e-10
2.11167e-10
2.30349e-10
2.47902e-10
2.6423e-10
2.79477e-10
2.93327e-10
3.05961e-10
3.1665e-10
3.27114e-10
3.35425e-10
3.4508e-10
3.51911e-10
3.58853e-10
3.70217e-10
2.00021e-09
2.18846e-09
2.15165e-09
2.10731e-09
2.06344e-09
2.01709e-09
1.95979e-09
1.88009e-09
1.76701e-09
1.61262e-09
1.41416e-09
1.18e-09
9.22139e-10
6.64479e-10
4.22016e-10
2.26702e-10
8.53928e-11
2.47085e-11
7.06696e-11
2.34023e-10
5.96694e-10
1.613e-09
3.23255e-09
5.49276e-09
7.1622e-09
8.80424e-09
1.01641e-08
1.07412e-08
1.0628e-08
1.02048e-08
9.74918e-09
9.33579e-09
9.00189e-09
8.7493e-09
8.49617e-09
8.24662e-09
7.98311e-09
7.72676e-09
7.44796e-09
7.17796e-09
6.86631e-09
6.57742e-09
6.28045e-09
5.99487e-09
5.70299e-09
5.40734e-09
5.11204e-09
4.78628e-09
4.42441e-09
4.06728e-09
3.70203e-09
3.32633e-09
2.91751e-09
2.42645e-09
1.96803e-09
1.52516e-09
1.02679e-09
4.88192e-10
1.73949e-10
6.28142e-11
2.70461e-11
1.62894e-11
1.00885e-11
5.9653e-12
3.8719e-12
2.60475e-12
1.82457e-12
1.33012e-12
1.05381e-12
8.70996e-13
7.89135e-13
7.70724e-13
7.79671e-13
7.74974e-13
7.73359e-13
7.79955e-13
8.10796e-13
8.71825e-13
9.52479e-13
1.04012e-12
1.13134e-12
1.23531e-12
1.35473e-12
1.49431e-12
1.6501e-12
1.82747e-12
2.02036e-12
2.23643e-12
2.46908e-12
2.72067e-12
3.01121e-12
3.33128e-12
3.69481e-12
4.11301e-12
4.56564e-12
5.0424e-12
5.56896e-12
6.14585e-12
6.81106e-12
7.52575e-12
8.25932e-12
9.05106e-12
9.89417e-12
1.08252e-11
1.18486e-11
1.29536e-11
1.412e-11
1.53174e-11
1.65457e-11
1.78415e-11
1.92029e-11
2.06634e-11
2.22247e-11
2.3854e-11
2.55319e-11
2.72002e-11
2.88465e-11
3.0531e-11
3.23104e-11
3.40957e-11
3.57487e-11
3.72504e-11
3.86926e-11
4.00935e-11
4.14146e-11
4.26938e-11
4.39551e-11
4.53356e-11
4.67909e-11
4.83878e-11
5.02996e-11
5.32277e-11
5.75338e-11
6.14992e-11
6.45194e-11
6.80355e-11
7.25514e-11
7.5163e-11
7.36918e-11
7.48615e-11
8.02202e-11
8.32699e-11
8.6802e-11
9.00765e-11
9.35069e-11
9.70466e-11
1.00751e-10
1.04675e-10
1.08838e-10
1.13273e-10
1.18025e-10
1.23076e-10
1.28527e-10
1.35064e-10
1.43851e-10
1.54214e-10
1.65495e-10
1.76222e-10
1.85203e-10
1.93406e-10
2.02229e-10
2.10953e-10
2.19277e-10
2.26925e-10
2.34021e-10
2.40718e-10
2.47532e-10
2.55252e-10
2.66083e-10
2.84947e-10
3.09946e-10
3.39978e-10
3.77405e-10
4.21986e-10
4.72592e-10
5.28909e-10
5.90103e-10
6.55138e-10
7.22406e-10
7.90468e-10
8.57147e-10
9.22472e-10
9.85512e-10
1.04399e-09
1.09838e-09
1.14473e-09
1.19113e-09
1.22763e-09
1.27144e-09
1.30089e-09
1.33369e-09
1.38541e-09
3.57732e-08
3.97718e-08
3.90919e-08
3.82559e-08
3.74241e-08
3.65514e-08
3.54827e-08
3.40074e-08
3.19284e-08
2.91077e-08
2.55043e-08
2.12873e-08
1.66806e-08
1.21325e-08
7.85474e-09
4.45163e-09
1.76298e-09
4.52748e-10
1.49657e-09
4.65978e-09
9.52172e-09
2.39148e-08
4.74863e-08
8.83424e-08
1.2521e-07
1.59412e-07
1.86039e-07
2.00146e-07
2.00803e-07
1.93873e-07
1.85592e-07
1.7784e-07
1.71416e-07
1.66506e-07
1.61694e-07
1.57005e-07
1.52012e-07
1.47142e-07
1.41824e-07
1.3668e-07
1.30788e-07
1.25328e-07
1.19602e-07
1.14196e-07
1.08609e-07
1.03057e-07
9.74538e-08
9.13411e-08
8.47459e-08
7.81598e-08
7.13841e-08
6.44147e-08
5.69076e-08
4.80117e-08
3.98282e-08
3.14428e-08
2.17547e-08
1.0868e-08
3.65939e-09
9.43372e-10
3.60249e-10
2.25461e-10
1.32899e-10
7.12573e-11
4.12394e-11
2.52716e-11
1.54824e-11
9.71999e-12
6.9318e-12
5.53188e-12
5.2119e-12
5.10973e-12
5.36927e-12
5.62671e-12
5.96064e-12
6.40624e-12
7.00195e-12
7.80626e-12
8.80263e-12
9.95162e-12
1.12428e-11
1.27136e-11
1.44039e-11
1.63478e-11
1.85589e-11
2.10602e-11
2.38654e-11
2.6992e-11
3.0462e-11
3.42561e-11
3.84849e-11
4.31762e-11
4.83619e-11
5.41604e-11
6.05407e-11
6.73686e-11
7.47518e-11
8.28051e-11
9.16846e-11
1.01402e-10
1.11559e-10
1.22379e-10
1.33918e-10
1.46394e-10
1.59985e-10
1.74653e-10
1.90193e-10
2.06395e-10
2.2312e-10
2.40704e-10
2.59242e-10
2.78924e-10
2.99938e-10
3.22112e-10
3.45115e-10
3.68582e-10
3.92269e-10
4.167e-10
4.4228e-10
4.68689e-10
4.94478e-10
5.19468e-10
5.4389e-10
5.68571e-10
5.92705e-10
6.16839e-10
6.40579e-10
6.65456e-10
6.90916e-10
7.17416e-10
7.45838e-10
7.83072e-10
8.4227e-10
9.01228e-10
9.46725e-10
9.98096e-10
1.06438e-09
1.12142e-09
1.11607e-09
1.12785e-09
1.21292e-09
1.26195e-09
1.32131e-09
1.37761e-09
1.43732e-09
1.5001e-09
1.56651e-09
1.63799e-09
1.7148e-09
1.7981e-09
1.88863e-09
1.98718e-09
2.09542e-09
2.2258e-09
2.40265e-09
2.615e-09
2.8535e-09
3.09448e-09
3.31543e-09
3.53596e-09
3.78826e-09
4.05886e-09
4.34369e-09
4.63415e-09
4.92603e-09
5.20909e-09
5.47513e-09
5.72069e-09
5.94285e-09
6.24031e-09
6.56534e-09
6.8991e-09
7.31989e-09
7.85729e-09
8.52043e-09
9.32695e-09
1.027e-08
1.13307e-08
1.24741e-08
1.36654e-08
1.48554e-08
1.60376e-08
1.7188e-08
1.82608e-08
1.92631e-08
2.0119e-08
2.09803e-08
2.16563e-08
2.24738e-08
2.30172e-08
2.36347e-08
2.46007e-08
3.03862e-07
3.40631e-07
3.35054e-07
3.28138e-07
3.21231e-07
3.1398e-07
3.05093e-07
2.92801e-07
2.75421e-07
2.51713e-07
2.21202e-07
1.85187e-07
1.45486e-07
1.05993e-07
6.86508e-08
3.89241e-08
1.54204e-08
3.93525e-09
1.30805e-08
4.07358e-08
8.27453e-08
2.03493e-07
3.81918e-07
6.7057e-07
9.32535e-07
1.16691e-06
1.33495e-06
1.43407e-06
1.45453e-06
1.42132e-06
1.37441e-06
1.328e-06
1.28807e-06
1.2569e-06
1.22645e-06
1.19693e-06
1.165e-06
1.13354e-06
1.09865e-06
1.06465e-06
1.02535e-06
9.88696e-07
9.49202e-07
9.11868e-07
8.72546e-07
8.33391e-07
7.93157e-07
7.48776e-07
7.00757e-07
6.51829e-07
6.00326e-07
5.46239e-07
4.86858e-07
4.14923e-07
3.47304e-07
2.75687e-07
1.91296e-07
9.54756e-08
3.20469e-08
8.15306e-09
3.08737e-09
1.93518e-09
1.13761e-09
6.06088e-10
3.47662e-10
2.11355e-10
1.27844e-10
7.89157e-11
5.549e-11
4.4044e-11
4.17032e-11
4.08946e-11
4.31824e-11
4.55545e-11
4.85986e-11
5.25976e-11
5.77845e-11
6.4649e-11
7.31183e-11
8.29256e-11
9.4e-11
1.06613e-10
1.2111e-10
1.37766e-10
1.56733e-10
1.78182e-10
2.0228e-10
2.29133e-10
2.58988e-10
2.91651e-10
3.27984e-10
3.68307e-10
4.12811e-10
4.62491e-10
5.17213e-10
5.75831e-10
6.39138e-10
7.08173e-10
7.84084e-10
8.67258e-10
9.54296e-10
1.04694e-09
1.14577e-09
1.25247e-09
1.36866e-09
1.49406e-09
1.62695e-09
1.76564e-09
1.90888e-09
2.05946e-09
2.21824e-09
2.38673e-09
2.56662e-09
2.75658e-09
2.95375e-09
3.15522e-09
3.35886e-09
3.56901e-09
3.78895e-09
4.01639e-09
4.23915e-09
4.45572e-09
4.66755e-09
4.88203e-09
5.09211e-09
5.30248e-09
5.50941e-09
5.72585e-09
5.94707e-09
6.17677e-09
6.42179e-09
6.7399e-09
7.2486e-09
7.7565e-09
8.14916e-09
8.5919e-09
9.16318e-09
9.66308e-09
9.62438e-09
9.72426e-09
1.04606e-08
1.08851e-08
1.14005e-08
1.18899e-08
1.24092e-08
1.29556e-08
1.3534e-08
1.4157e-08
1.48268e-08
1.55538e-08
1.63444e-08
1.72058e-08
1.81527e-08
1.92933e-08
2.08412e-08
2.27012e-08
2.47925e-08
2.69096e-08
2.88554e-08
3.08012e-08
3.30298e-08
3.54226e-08
3.79438e-08
4.05165e-08
4.31017e-08
4.56074e-08
4.79598e-08
5.01294e-08
5.20814e-08
5.46829e-08
5.75132e-08
6.04007e-08
6.40301e-08
6.86632e-08
7.43854e-08
8.13579e-08
8.95239e-08
9.87184e-08
1.08633e-07
1.18962e-07
1.29274e-07
1.39508e-07
1.49453e-07
1.58713e-07
1.67352e-07
1.74717e-07
1.82122e-07
1.87924e-07
1.94935e-07
1.99583e-07
2.04871e-07
2.13122e-07
1.42629e-06
1.56765e-06
1.5471e-06
1.52046e-06
1.49344e-06
1.46504e-06
1.43018e-06
1.38171e-06
1.31243e-06
1.21618e-06
1.08882e-06
9.32736e-07
7.52118e-07
5.6227e-07
3.71777e-07
2.12973e-07
8.43296e-08
2.14306e-08
7.12568e-08
2.23139e-07
4.44488e-07
9.72694e-07
1.54896e-06
2.40635e-06
3.20874e-06
3.91806e-06
4.3761e-06
4.68014e-06
4.80152e-06
4.76195e-06
4.66525e-06
4.55762e-06
4.45887e-06
4.37902e-06
4.30132e-06
4.22774e-06
4.14652e-06
4.06583e-06
3.97411e-06
3.88446e-06
3.77969e-06
3.68267e-06
3.5727e-06
3.4696e-06
3.35766e-06
3.24717e-06
3.13064e-06
3.00016e-06
2.86088e-06
2.71604e-06
2.55706e-06
2.38348e-06
2.18597e-06
1.93504e-06
1.69146e-06
1.4002e-06
1.01441e-06
5.22746e-07
1.75033e-07
4.45945e-08
1.68621e-08
1.05625e-08
6.20935e-09
3.30631e-09
1.89422e-09
1.15044e-09
6.94984e-10
4.28142e-10
3.00411e-10
2.38174e-10
2.2551e-10
2.21064e-10
2.33514e-10
2.46508e-10
2.63163e-10
2.85009e-10
3.13256e-10
3.50573e-10
3.96608e-10
4.49952e-10
5.10221e-10
5.78861e-10
6.57755e-10
7.4839e-10
8.51619e-10
9.68356e-10
1.09954e-09
1.24573e-09
1.4083e-09
1.58618e-09
1.78401e-09
2.00359e-09
2.24591e-09
2.51639e-09
2.81439e-09
3.13366e-09
3.47846e-09
3.85448e-09
4.26789e-09
4.72098e-09
5.19521e-09
5.70003e-09
6.23858e-09
6.82008e-09
7.45334e-09
8.13689e-09
8.86145e-09
9.61779e-09
1.03991e-08
1.12205e-08
1.20868e-08
1.30062e-08
1.39879e-08
1.50248e-08
1.61013e-08
1.72015e-08
1.83137e-08
1.94617e-08
2.06633e-08
2.19061e-08
2.31235e-08
2.43074e-08
2.54655e-08
2.66384e-08
2.77872e-08
2.89379e-08
3.00698e-08
3.12537e-08
3.24639e-08
3.37206e-08
3.50612e-08
3.68003e-08
3.95883e-08
4.23614e-08
4.45097e-08
4.69326e-08
5.00557e-08
5.27897e-08
5.25814e-08
5.31328e-08
5.71599e-08
5.94832e-08
6.23038e-08
6.49825e-08
6.78251e-08
7.08165e-08
7.39832e-08
7.73937e-08
8.10612e-08
8.50422e-08
8.93714e-08
9.40895e-08
9.92758e-08
1.05523e-07
1.14002e-07
1.24191e-07
1.35649e-07
1.47249e-07
1.5791e-07
1.68564e-07
1.80754e-07
1.93814e-07
2.07529e-07
2.21455e-07
2.35371e-07
2.48801e-07
2.61428e-07
2.73229e-07
2.84137e-07
2.9888e-07
3.14942e-07
3.30951e-07
3.50238e-07
3.7399e-07
4.02624e-07
4.37067e-07
4.77074e-07
5.21804e-07
5.69679e-07
6.19147e-07
6.68074e-07
7.16179e-07
7.62447e-07
8.05076e-07
8.44477e-07
8.77748e-07
9.11009e-07
9.36816e-07
9.67932e-07
9.88251e-07
1.01153e-06
1.04736e-06
4.12933e-06
4.40361e-06
4.36411e-06
4.30625e-06
4.24614e-06
4.18308e-06
4.10604e-06
3.99868e-06
3.84441e-06
3.62737e-06
3.33351e-06
2.96088e-06
2.50594e-06
1.99138e-06
1.4132e-06
8.64773e-07
3.52573e-07
8.91411e-08
2.96464e-07
9.30208e-07
1.67346e-06
2.96615e-06
3.94862e-06
5.4499e-06
7.00094e-06
8.44798e-06
9.31975e-06
9.94106e-06
1.02874e-05
1.03205e-05
1.02117e-05
1.00568e-05
9.90054e-06
9.76819e-06
9.63857e-06
9.52145e-06
9.38997e-06
9.2597e-06
9.10706e-06
8.95942e-06
8.78492e-06
8.62992e-06
8.43857e-06
8.25684e-06
8.05419e-06
7.85837e-06
7.64854e-06
7.41098e-06
7.166e-06
6.91495e-06
6.63081e-06
6.31212e-06
5.94282e-06
5.46052e-06
5.01721e-06
4.42025e-06
3.49959e-06
2.06437e-06
7.33381e-07
1.86359e-07
7.05935e-08
4.42143e-08
2.60011e-08
1.38421e-08
7.92459e-09
4.81079e-09
2.90536e-09
1.7886e-09
1.25357e-09
9.93092e-10
9.39672e-10
9.20722e-10
9.7246e-10
1.02666e-09
1.0961e-09
1.18715e-09
1.30479e-09
1.46021e-09
1.652e-09
1.87433e-09
2.12556e-09
2.41168e-09
2.74056e-09
3.11841e-09
3.54881e-09
4.03557e-09
4.58266e-09
5.19236e-09
5.87049e-09
6.61254e-09
7.4379e-09
8.35415e-09
9.36542e-09
1.04944e-08
1.17385e-08
1.30717e-08
1.45117e-08
1.60824e-08
1.78097e-08
1.97032e-08
2.16854e-08
2.37959e-08
2.60477e-08
2.84797e-08
3.11285e-08
3.39881e-08
3.70196e-08
4.01843e-08
4.34535e-08
4.68904e-08
5.05154e-08
5.43621e-08
5.84694e-08
6.28069e-08
6.7309e-08
7.19094e-08
7.65591e-08
8.13574e-08
8.63783e-08
9.15709e-08
9.66565e-08
1.01602e-07
1.0644e-07
1.11339e-07
1.16137e-07
1.20943e-07
1.25669e-07
1.3061e-07
1.35658e-07
1.40895e-07
1.4647e-07
1.53677e-07
1.65301e-07
1.76772e-07
1.85676e-07
1.95711e-07
2.08641e-07
2.20027e-07
2.19213e-07
2.21479e-07
2.38126e-07
2.47728e-07
2.59386e-07
2.70458e-07
2.82205e-07
2.94568e-07
3.07654e-07
3.21749e-07
3.36907e-07
3.53369e-07
3.71279e-07
3.90817e-07
4.12314e-07
4.38203e-07
4.73324e-07
5.15555e-07
5.63134e-07
6.11522e-07
6.56301e-07
7.01277e-07
7.52776e-07
8.07894e-07
8.65456e-07
9.23247e-07
9.80054e-07
1.03408e-06
1.085e-06
1.13431e-06
1.18251e-06
1.2471e-06
1.31185e-06
1.36449e-06
1.41582e-06
1.47226e-06
1.53922e-06
1.6234e-06
1.72544e-06
1.84287e-06
1.97045e-06
2.10292e-06
2.23354e-06
2.36127e-06
2.48296e-06
2.59378e-06
2.69523e-06
2.7799e-06
2.8643e-06
2.92883e-06
3.00695e-06
3.05657e-06
3.1147e-06
3.20219e-06
8.74935e-06
9.12771e-06
9.08279e-06
8.99113e-06
8.89223e-06
8.78931e-06
8.66518e-06
8.48531e-06
8.22654e-06
7.86186e-06
7.36427e-06
6.72586e-06
5.92728e-06
4.99187e-06
3.85463e-06
2.65647e-06
1.2141e-06
3.13687e-07
1.04332e-06
3.15972e-06
4.72392e-06
6.85629e-06
7.79491e-06
9.96877e-06
1.2436e-05
1.49377e-05
1.64053e-05
1.74633e-05
1.81531e-05
1.83349e-05
1.82489e-05
1.80529e-05
1.78321e-05
1.76352e-05
1.74362e-05
1.72616e-05
1.70636e-05
1.68681e-05
1.66323e-05
1.64055e-05
1.61321e-05
1.58977e-05
1.56032e-05
1.53389e-05
1.50365e-05
1.47516e-05
1.44442e-05
1.40908e-05
1.37408e-05
1.34022e-05
1.30116e-05
1.25648e-05
1.20437e-05
1.13252e-05
1.07233e-05
9.86018e-06
8.36309e-06
5.75322e-06
2.56e-06
6.55878e-07
2.50289e-07
1.5714e-07
9.25299e-08
4.92588e-08
2.8179e-08
1.70982e-08
1.03234e-08
6.35094e-09
4.44544e-09
3.51892e-09
3.32654e-09
3.25754e-09
3.43982e-09
3.63147e-09
3.87692e-09
4.19874e-09
4.61444e-09
5.16381e-09
5.84208e-09
6.6287e-09
7.51772e-09
8.53026e-09
9.6942e-09
1.10316e-08
1.25554e-08
1.42789e-08
1.62165e-08
1.83761e-08
2.07786e-08
2.3408e-08
2.63331e-08
2.95811e-08
3.31667e-08
3.71704e-08
4.15834e-08
4.63131e-08
5.14218e-08
5.6995e-08
6.31231e-08
6.98409e-08
7.68719e-08
8.43553e-08
9.23363e-08
1.0095e-07
1.10324e-07
1.20436e-07
1.31145e-07
1.42312e-07
1.53831e-07
1.65921e-07
1.7865e-07
1.9213e-07
2.06494e-07
2.21636e-07
2.37321e-07
2.53321e-07
2.69458e-07
2.86077e-07
3.03436e-07
3.21378e-07
3.38945e-07
3.56027e-07
3.72721e-07
3.89629e-07
4.0618e-07
4.22741e-07
4.38981e-07
4.559e-07
4.73096e-07
4.90793e-07
5.09389e-07
5.33144e-07
5.72236e-07
6.10273e-07
6.39753e-07
6.72936e-07
7.16063e-07
7.54864e-07
7.52471e-07
7.59443e-07
8.14482e-07
8.46076e-07
8.8454e-07
9.21086e-07
9.59868e-07
1.00072e-06
1.04399e-06
1.09066e-06
1.14094e-06
1.19567e-06
1.25541e-06
1.32086e-06
1.39318e-06
1.48031e-06
1.59829e-06
1.74056e-06
1.90209e-06
2.06906e-06
2.22747e-06
2.38981e-06
2.57688e-06
2.77807e-06
2.98748e-06
3.1945e-06
3.39235e-06
3.5754e-06
3.74831e-06
3.92331e-06
4.09787e-06
4.30234e-06
4.44056e-06
4.45529e-06
4.40456e-06
4.34654e-06
4.3251e-06
4.36973e-06
4.48134e-06
4.64913e-06
4.8556e-06
5.08371e-06
5.31547e-06
5.54639e-06
5.76774e-06
5.96917e-06
6.15355e-06
6.30645e-06
6.45981e-06
6.57543e-06
6.71747e-06
6.80462e-06
6.91065e-06
7.06618e-06
1.5453e-05
1.59714e-05
1.59238e-05
1.57849e-05
1.563e-05
1.54693e-05
1.52766e-05
1.50132e-05
1.46384e-05
1.41128e-05
1.33974e-05
1.24843e-05
1.13444e-05
9.96149e-06
8.17953e-06
6.25911e-06
3.38795e-06
9.91393e-07
3.27417e-06
8.82995e-06
1.10698e-05
1.38568e-05
1.39564e-05
1.6391e-05
1.96679e-05
2.35489e-05
2.57914e-05
2.7409e-05
2.86145e-05
2.90962e-05
2.91349e-05
2.89544e-05
2.86966e-05
2.84454e-05
2.81756e-05
2.79461e-05
2.76838e-05
2.7427e-05
2.71046e-05
2.67971e-05
2.64148e-05
2.61038e-05
2.56948e-05
2.53352e-05
2.49115e-05
2.45187e-05
2.40912e-05
2.35879e-05
2.30942e-05
2.26415e-05
2.2111e-05
2.14856e-05
2.07337e-05
1.96855e-05
1.89852e-05
1.79936e-05
1.59031e-05
1.1989e-05
6.99293e-06
2.05924e-06
7.90582e-07
5.00255e-07
2.95938e-07
1.57786e-07
9.02377e-08
5.4738e-08
3.3042e-08
2.03102e-08
1.41924e-08
1.12249e-08
1.05983e-08
1.03706e-08
1.09477e-08
1.15571e-08
1.23373e-08
1.33604e-08
1.46815e-08
1.64286e-08
1.8587e-08
2.10916e-08
2.39227e-08
2.71474e-08
3.08547e-08
3.51153e-08
3.99704e-08
4.54628e-08
5.16383e-08
5.85217e-08
6.61806e-08
7.45617e-08
8.38841e-08
9.42333e-08
1.05653e-07
1.18397e-07
1.32435e-07
1.47465e-07
1.63675e-07
1.81328e-07
2.00693e-07
2.21879e-07
2.43988e-07
2.67437e-07
2.92347e-07
3.19105e-07
3.48086e-07
3.79195e-07
4.1197e-07
4.45958e-07
4.80788e-07
5.17106e-07
5.55083e-07
5.95013e-07
6.37297e-07
6.8162e-07
7.27294e-07
7.73661e-07
8.20173e-07
8.67836e-07
9.17471e-07
9.68781e-07
1.01903e-06
1.06789e-06
1.11558e-06
1.1639e-06
1.21111e-06
1.25819e-06
1.30398e-06
1.35122e-06
1.39858e-06
1.44625e-06
1.49482e-06
1.55602e-06
1.66231e-06
1.76303e-06
1.84102e-06
1.92946e-06
2.04737e-06
2.15587e-06
2.14931e-06
2.1659e-06
2.31367e-06
2.39781e-06
2.50106e-06
2.59948e-06
2.70427e-06
2.8151e-06
2.93299e-06
3.06075e-06
3.19918e-06
3.35085e-06
3.51766e-06
3.70207e-06
3.90764e-06
4.15569e-06
4.49022e-06
4.89529e-06
5.36034e-06
5.85134e-06
6.33188e-06
6.83546e-06
7.41734e-06
8.04475e-06
8.69587e-06
9.33396e-06
9.93555e-06
1.04871e-05
1.10072e-05
1.15179e-05
1.19577e-05
1.2316e-05
1.22903e-05
1.1785e-05
1.10535e-05
1.03316e-05
9.77267e-06
9.45289e-06
9.35876e-06
9.44082e-06
9.65256e-06
9.92776e-06
1.023e-05
1.05543e-05
1.08762e-05
1.11736e-05
1.14493e-05
1.16776e-05
1.19106e-05
1.20835e-05
1.23021e-05
1.243e-05
1.25949e-05
1.2829e-05
2.49019e-05
2.5591e-05
2.55522e-05
2.53615e-05
2.51394e-05
2.49096e-05
2.46363e-05
2.42683e-05
2.37473e-05
2.30173e-05
2.20191e-05
2.07384e-05
1.91158e-05
1.72393e-05
1.48493e-05
1.2201e-05
7.60246e-06
2.90234e-06
9.20311e-06
2.06665e-05
2.32653e-05
2.63957e-05
2.40837e-05
2.53114e-05
2.86516e-05
3.42241e-05
3.73962e-05
3.96935e-05
4.16229e-05
4.26103e-05
4.29443e-05
4.28864e-05
4.2658e-05
4.23877e-05
4.20601e-05
4.17888e-05
4.1478e-05
4.11784e-05
4.07797e-05
4.04043e-05
3.9914e-05
3.95457e-05
3.90284e-05
3.85813e-05
3.80339e-05
3.75347e-05
3.69871e-05
3.63224e-05
3.56677e-05
3.51089e-05
3.4449e-05
3.36449e-05
3.26406e-05
3.11522e-05
3.02388e-05
2.89782e-05
2.63197e-05
2.08818e-05
1.43952e-05
5.98062e-06
2.27256e-06
1.46048e-06
8.74053e-07
4.6908e-07
2.68874e-07
1.63298e-07
9.86275e-08
6.05812e-08
4.22435e-08
3.33866e-08
3.14735e-08
3.07673e-08
3.24673e-08
3.42723e-08
3.65829e-08
3.96127e-08
4.35233e-08
4.86982e-08
5.5095e-08
6.25226e-08
7.09182e-08
8.04789e-08
9.14673e-08
1.04091e-07
1.18471e-07
1.34727e-07
1.52992e-07
1.73325e-07
1.95923e-07
2.20601e-07
2.4798e-07
2.78285e-07
3.11593e-07
3.48594e-07
3.89169e-07
4.32357e-07
4.78589e-07
5.28532e-07
5.82826e-07
6.41769e-07
7.02653e-07
7.6651e-07
8.3353e-07
9.04619e-07
9.80731e-07
1.06154e-06
1.14575e-06
1.2321e-06
1.31946e-06
1.40949e-06
1.50255e-06
1.59942e-06
1.70123e-06
1.80734e-06
1.91617e-06
2.02614e-06
2.13583e-06
2.24791e-06
2.36482e-06
2.48619e-06
2.60532e-06
2.72129e-06
2.83464e-06
2.94954e-06
3.06156e-06
3.17253e-06
3.27927e-06
3.38796e-06
3.49468e-06
3.59894e-06
3.70204e-06
3.83343e-06
4.08007e-06
4.30416e-06
4.48047e-06
4.68532e-06
4.9651e-06
5.21958e-06
5.19992e-06
5.23992e-06
5.58403e-06
5.78043e-06
6.02281e-06
6.25572e-06
6.50503e-06
6.77039e-06
7.05438e-06
7.3641e-06
7.70193e-06
8.07452e-06
8.48724e-06
8.94663e-06
9.46175e-06
1.00817e-05
1.09087e-05
1.19057e-05
1.30489e-05
1.42604e-05
1.54565e-05
1.6711e-05
1.81434e-05
1.96764e-05
2.12652e-05
2.28394e-05
2.4359e-05
2.57812e-05
2.70792e-05
2.81726e-05
2.88195e-05
2.89956e-05
2.81942e-05
2.63207e-05
2.39253e-05
2.15362e-05
1.95408e-05
1.81498e-05
1.7346e-05
1.68895e-05
1.68407e-05
1.70567e-05
1.74064e-05
1.78295e-05
1.82711e-05
1.86874e-05
1.90795e-05
1.94038e-05
1.97418e-05
1.99882e-05
2.03096e-05
2.04885e-05
2.07333e-05
2.10696e-05
3.75091e-05
3.8434e-05
3.84069e-05
3.81668e-05
3.78696e-05
3.75635e-05
3.72031e-05
3.67222e-05
3.60455e-05
3.50999e-05
3.38027e-05
3.21336e-05
2.99886e-05
2.75237e-05
2.427e-05
2.10897e-05
1.44548e-05
7.53559e-06
2.20568e-05
4.15933e-05
4.46909e-05
4.79485e-05
4.15711e-05
3.82324e-05
3.94708e-05
4.688e-05
5.10431e-05
5.4131e-05
5.7023e-05
5.87442e-05
5.96155e-05
5.9843e-05
5.97531e-05
5.95349e-05
5.91789e-05
5.88901e-05
5.85563e-05
5.82446e-05
5.77931e-05
5.73755e-05
5.67852e-05
5.63903e-05
5.57851e-05
5.52746e-05
5.46141e-05
5.40224e-05
5.33679e-05
5.25429e-05
5.17115e-05
5.10626e-05
5.02999e-05
4.93389e-05
4.80851e-05
4.60572e-05
4.48423e-05
4.3257e-05
3.98691e-05
3.23489e-05
2.43686e-05
1.47368e-05
5.97183e-06
3.92876e-06
2.39949e-06
1.30756e-06
7.55744e-07
4.61566e-07
2.79715e-07
1.71913e-07
1.19661e-07
9.45617e-08
8.89768e-08
8.68675e-08
9.16212e-08
9.6709e-08
1.03218e-07
1.11746e-07
1.22729e-07
1.37257e-07
1.55211e-07
1.76055e-07
1.99585e-07
2.26326e-07
2.56984e-07
2.92102e-07
3.31971e-07
3.7685e-07
4.27049e-07
4.82601e-07
5.43963e-07
6.10409e-07
6.83413e-07
7.63364e-07
8.50129e-07
9.45316e-07
1.04842e-06
1.15649e-06
1.27022e-06
1.39098e-06
1.52021e-06
1.65869e-06
1.79916e-06
1.94402e-06
2.09341e-06
2.24946e-06
2.41459e-06
2.58819e-06
2.76738e-06
2.94915e-06
3.1309e-06
3.31662e-06
3.50721e-06
3.7049e-06
3.91271e-06
4.12968e-06
4.35268e-06
4.57799e-06
4.80274e-06
5.03368e-06
5.27709e-06
5.53169e-06
5.78217e-06
6.02652e-06
6.26628e-06
6.5094e-06
6.74559e-06
6.9779e-06
7.1993e-06
7.42251e-06
7.6377e-06
7.84397e-06
8.04933e-06
8.32528e-06
8.85792e-06
9.32285e-06
9.70117e-06
1.01529e-05
1.07638e-05
1.12917e-05
1.12414e-05
1.13541e-05
1.2095e-05
1.25269e-05
1.30548e-05
1.35659e-05
1.4113e-05
1.46963e-05
1.5321e-05
1.60022e-05
1.67447e-05
1.7562e-05
1.84649e-05
1.94656e-05
2.05812e-05
2.19061e-05
2.36375e-05
2.56879e-05
2.79982e-05
3.0412e-05
3.27735e-05
3.52284e-05
3.80076e-05
4.09874e-05
4.4119e-05
4.73047e-05
5.04634e-05
5.34213e-05
5.59356e-05
5.76588e-05
5.81416e-05
5.75402e-05
5.52486e-05
5.11792e-05
4.61445e-05
4.09265e-05
3.62389e-05
3.26056e-05
3.01363e-05
2.84847e-05
2.76722e-05
2.75194e-05
2.77344e-05
2.81617e-05
2.86752e-05
2.91864e-05
2.96862e-05
3.01012e-05
3.05508e-05
3.08709e-05
3.13105e-05
3.15377e-05
3.18777e-05
3.23252e-05
5.3587e-05
5.48868e-05
5.48393e-05
5.45578e-05
5.41809e-05
5.37945e-05
5.33453e-05
5.27522e-05
5.1925e-05
5.07757e-05
4.91962e-05
4.71649e-05
4.45169e-05
4.14828e-05
3.72805e-05
3.35511e-05
2.45894e-05
1.60548e-05
4.40273e-05
7.3966e-05
7.83448e-05
8.19342e-05
7.01685e-05
5.86391e-05
5.3417e-05
6.13007e-05
6.65965e-05
7.05335e-05
7.46206e-05
7.73113e-05
7.90266e-05
7.9755e-05
7.99624e-05
7.99139e-05
7.95786e-05
7.93115e-05
7.89858e-05
7.87003e-05
7.82319e-05
7.78074e-05
7.7129e-05
7.67439e-05
7.60802e-05
7.55425e-05
7.47886e-05
7.41252e-05
7.3383e-05
7.24071e-05
7.13734e-05
7.06401e-05
6.97955e-05
6.87056e-05
6.72201e-05
6.45518e-05
6.29125e-05
6.09264e-05
5.68154e-05
4.67025e-05
3.63877e-05
2.78302e-05
1.44922e-05
9.68784e-06
6.10579e-06
3.40824e-06
2.00071e-06
1.23679e-06
7.56201e-07
4.6654e-07
3.24981e-07
2.57152e-07
2.41468e-07
2.35329e-07
2.48008e-07
2.61736e-07
2.79253e-07
3.02098e-07
3.31295e-07
3.69774e-07
4.17173e-07
4.72043e-07
5.33629e-07
6.03101e-07
6.8207e-07
7.71678e-07
8.72376e-07
9.84415e-07
1.10823e-06
1.24333e-06
1.39042e-06
1.54681e-06
1.71551e-06
1.89675e-06
2.08956e-06
2.29756e-06
2.51916e-06
2.74682e-06
2.98165e-06
3.22671e-06
3.48612e-06
3.76128e-06
4.03576e-06
4.31549e-06
4.60053e-06
4.89658e-06
5.20936e-06
5.53813e-06
5.87692e-06
6.21922e-06
6.56006e-06
6.90865e-06
7.26729e-06
7.64205e-06
8.0394e-06
8.45778e-06
8.89057e-06
9.3289e-06
9.76812e-06
1.0225e-05
1.07122e-05
1.12232e-05
1.17243e-05
1.2213e-05
1.26934e-05
1.31789e-05
1.36474e-05
1.41053e-05
1.45391e-05
1.49749e-05
1.53915e-05
1.57934e-05
1.62126e-05
1.68113e-05
1.78918e-05
1.88207e-05
1.95973e-05
2.05295e-05
2.17371e-05
2.27201e-05
2.26296e-05
2.29253e-05
2.4366e-05
2.52324e-05
2.62625e-05
2.72626e-05
2.83234e-05
2.94474e-05
3.06425e-05
3.19347e-05
3.3331e-05
3.4853e-05
3.65168e-05
3.83401e-05
4.03489e-05
4.26962e-05
4.57078e-05
4.92176e-05
5.3117e-05
5.71552e-05
6.10988e-05
6.52079e-05
6.98825e-05
7.49501e-05
8.03498e-05
8.59083e-05
9.14129e-05
9.64314e-05
0.000100387
0.000102628
0.000102532
0.000100573
9.60836e-05
8.90305e-05
8.05178e-05
7.14873e-05
6.28847e-05
5.56205e-05
5.01205e-05
4.64855e-05
4.38956e-05
4.26222e-05
4.22138e-05
4.23553e-05
4.27718e-05
4.3275e-05
4.38217e-05
4.42843e-05
4.48282e-05
4.52014e-05
4.57632e-05
4.60206e-05
4.64666e-05
4.70198e-05
7.35099e-05
7.53303e-05
7.5187e-05
7.48739e-05
7.44152e-05
7.3946e-05
7.34083e-05
7.27089e-05
7.17453e-05
7.04182e-05
6.85934e-05
6.62561e-05
6.31607e-05
5.96509e-05
5.44949e-05
5.01806e-05
3.86373e-05
2.85972e-05
7.57406e-05
0.000119677
0.000126781
0.000131245
0.000112966
9.14136e-05
7.37499e-05
7.8483e-05
8.41798e-05
8.87739e-05
9.40173e-05
9.81458e-05
0.000101058
0.000102571
0.000103293
0.000103594
0.000103352
0.00010317
0.000102888
0.000102681
0.000102238
0.000101848
0.000101098
0.000100759
0.000100071
9.95477e-05
9.87228e-05
9.80074e-05
9.71936e-05
9.60788e-05
9.47972e-05
9.39568e-05
9.30201e-05
9.18152e-05
9.01177e-05
8.67084e-05
8.44608e-05
8.19197e-05
7.72101e-05
6.40961e-05
5.06406e-05
4.29533e-05
3.19612e-05
2.16697e-05
1.4305e-05
8.27781e-06
4.9632e-06
3.11718e-06
1.92933e-06
1.20095e-06
8.39363e-07
6.66308e-07
6.24067e-07
6.06641e-07
6.38306e-07
6.73067e-07
7.17068e-07
7.73678e-07
8.44775e-07
9.37708e-07
1.05138e-06
1.18197e-06
1.32663e-06
1.48742e-06
1.66733e-06
1.86828e-06
2.09048e-06
2.33363e-06
2.59785e-06
2.88112e-06
3.18396e-06
3.49915e-06
3.83316e-06
4.18559e-06
4.55501e-06
4.94958e-06
5.36511e-06
5.78566e-06
6.21484e-06
6.66016e-06
7.13241e-06
7.63156e-06
8.12482e-06
8.62698e-06
9.13803e-06
9.67243e-06
1.02415e-05
1.08437e-05
1.1466e-05
1.20945e-05
1.27212e-05
1.33662e-05
1.40347e-05
1.47407e-05
1.54946e-05
1.62931e-05
1.71205e-05
1.79567e-05
1.87959e-05
1.96752e-05
2.06159e-05
2.15959e-05
2.2544e-05
2.34626e-05
2.43618e-05
2.52633e-05
2.61239e-05
2.69607e-05
2.77502e-05
2.85452e-05
2.93057e-05
3.00578e-05
3.08792e-05
3.21022e-05
3.40235e-05
3.57166e-05
3.71318e-05
3.88046e-05
4.08617e-05
4.24736e-05
4.2374e-05
4.29998e-05
4.54059e-05
4.69066e-05
4.86327e-05
5.03113e-05
5.20708e-05
5.3923e-05
5.58761e-05
5.79716e-05
6.0219e-05
6.26501e-05
6.52893e-05
6.81621e-05
7.13088e-05
7.49557e-05
7.96009e-05
8.49874e-05
9.09522e-05
9.71346e-05
0.000103205
0.000109568
0.000116832
0.000124735
0.000133153
0.00014176
0.000150131
0.000157523
0.000163012
0.000165669
0.000164693
0.000160911
0.000153552
0.000142661
0.000129751
0.00011595
0.000102351
9.01519e-05
8.01189e-05
7.27982e-05
6.77751e-05
6.42776e-05
6.23165e-05
6.15074e-05
6.14134e-05
6.16447e-05
6.20782e-05
6.24766e-05
6.30559e-05
6.34283e-05
6.40997e-05
6.43472e-05
6.49042e-05
6.55403e-05
9.80524e-05
0.000100157
9.98886e-05
9.95511e-05
9.90108e-05
9.84565e-05
9.78306e-05
9.70299e-05
9.59431e-05
9.44641e-05
9.24299e-05
8.98449e-05
8.63541e-05
8.24847e-05
7.6378e-05
7.14808e-05
5.70994e-05
4.50142e-05
0.000117122
0.000180534
0.000192871
0.000199084
0.000173909
0.000139205
0.000107078
0.000101083
0.000104738
0.000109053
0.000115197
0.00012102
0.000125452
0.000128239
0.000129761
0.00013067
0.000130628
0.000130641
0.00013044
0.000130397
0.000130015
0.000129706
0.000128909
0.000128646
0.000127975
0.000127509
0.000126641
0.000125893
0.00012502
0.000123785
0.000122194
0.000121195
0.00012011
0.000118784
0.000116886
0.000112656
0.000109552
0.000106181
0.000101035
8.45607e-05
6.76904e-05
5.81932e-05
5.89974e-05
4.40341e-05
3.04946e-05
1.85955e-05
1.15239e-05
7.38185e-06
4.61839e-06
2.90179e-06
2.02883e-06
1.61345e-06
1.50356e-06
1.45544e-06
1.52645e-06
1.60523e-06
1.70352e-06
1.82716e-06
1.97902e-06
2.17651e-06
2.41662e-06
2.68983e-06
2.98737e-06
3.31272e-06
3.6711e-06
4.06598e-06
4.49664e-06
4.96195e-06
5.46105e-06
5.98923e-06
6.54601e-06
7.117e-06
7.71698e-06
8.34455e-06
9.00049e-06
9.7007e-06
1.04339e-05
1.11712e-05
1.1924e-05
1.27097e-05
1.35496e-05
1.44356e-05
1.53067e-05
1.61986e-05
1.71098e-05
1.80725e-05
1.91044e-05
2.02005e-05
2.1331e-05
2.24702e-05
2.36041e-05
2.47745e-05
2.59912e-05
2.72793e-05
2.86499e-05
3.00964e-05
3.15855e-05
3.30767e-05
3.45625e-05
3.61157e-05
3.77666e-05
3.94658e-05
4.10781e-05
4.26248e-05
4.41244e-05
4.56161e-05
4.70239e-05
4.83907e-05
4.96769e-05
5.09811e-05
5.22354e-05
5.35095e-05
5.4928e-05
5.71159e-05
6.00359e-05
6.27548e-05
6.49961e-05
6.7597e-05
7.06579e-05
7.30177e-05
7.29878e-05
7.41167e-05
7.76404e-05
7.99464e-05