/*--------------------------------*- C++ -*----------------------------------*\
| =========                 |                                                 |
| \\      /  F ield         | OpenFOAM: The Open Source CFD Toolbox           |
|  \\    /   O peration     | Version:  2212                                  |
|   \\  /    A nd           | Website:  www.openfoam.com                      |
|    \\/     M anipulation  |                                                 |
\*---------------------------------------------------------------------------*/
FoamFile
{
    version     2.0;
    format      ascii;
    arch        "LSB;label=32;scalar=64";
    class       volScalarField;
    location    "1";
    object      p;
}
// * * * * * * * * * * * * * * * * * * * * * * * * * * * * * * * * * * * * * //

dimensions      [0 2 -2 0 0 0 0];

internalField   nonuniform List<scalar> 
10368
(
34.6834
32.5951
31.9055
31.5683
31.4163
31.7163
32.9164
35.6167
40.5862
48.5494
60.0513
75.2366
93.9548
115.442
139.243
162.605
187.35
196.837
221.955
223.312
216.088
170.42
82.7621
-38.5156
-117.928
-167.107
-235.529
-289.274
-317.265
-337.236
-353.272
-367.564
-380.144
-393.742
-406.153
-416.562
-425.244
-432.389
-438.251
-442.369
-445.415
-445.214
-445.155
-443.448
-440.357
-436.738
-430.375
-424.727
-415.116
-403.35
-390.609
-376.2
-360.767
-342.297
-319.36
-294.327
-272.037
-247.007
-222.556
-207.648
-201.297
-198.711
-196.647
-195.345
-194.2
-193.398
-192.743
-192.271
-191.875
-191.561
-191.349
-191.186
-191.02
-190.871
-190.747
-190.648
-190.589
-190.542
-190.508
-190.469
-190.443
-190.425
-190.419
-190.421
-190.43
-190.45
-190.471
-190.508
-190.543
-190.598
-190.658
-190.728
-190.807
-190.892
-190.971
-191.058
-191.148
-191.239
-191.337
-191.411
-191.492
-191.561
-191.63
-191.691
-191.742
-191.775
-191.79
-191.782
-191.763
-191.724
-191.669
-191.597
-191.497
-191.369
-191.212
-191.02
-190.806
-190.568
-190.312
-190.01
-189.687
-189.336
-188.996
-188.628
-188.281
-187.917
-187.592
-187.257
-186.95
-186.633
-186.347
-186.048
-185.622
-185.053
-184.43
-183.777
-183.021
-181.994
-181.202
-180.626
-179.788
-178.92
-177.954
-176.926
-175.806
-174.595
-173.27
-171.818
-170.215
-168.435
-166.456
-164.227
-161.736
-158.909
-155.713
-152.071
-147.948
-143.226
-137.913
-131.838
-124.958
-117.151
-108.393
-98.6623
-88.0427
-76.6672
-64.8135
-52.8282
-41.1443
-30.2064
-20.4578
-12.2816
-5.89365
-1.29234
1.65301
3.24257
3.84485
3.72847
3.20142
2.48084
1.78428
1.19181
0.729867
0.368481
0.141765
-0.00592245
-0.0392354
-0.0659728
-0.0597855
-0.0911952
-0.52621
0.115971
34.6822
32.5936
31.9041
31.5669
31.415
31.7149
32.915
35.615
40.5842
48.5467
60.0476
75.2314
93.9478
115.433
139.232
162.591
187.339
196.825
221.948
223.311
216.081
170.397
82.7275
-38.5402
-117.941
-167.119
-235.539
-289.283
-317.273
-337.245
-353.28
-367.572
-380.152
-393.749
-406.16
-416.57
-425.252
-432.396
-438.259
-442.377
-445.424
-445.223
-445.164
-443.457
-440.366
-436.748
-430.386
-424.738
-415.13
-403.365
-390.625
-376.217
-360.786
-342.32
-319.388
-294.355
-272.066
-247.042
-222.59
-207.67
-201.309
-198.718
-196.653
-195.35
-194.204
-193.401
-192.745
-192.272
-191.876
-191.563
-191.35
-191.186
-191.021
-190.872
-190.747
-190.648
-190.589
-190.543
-190.508
-190.469
-190.443
-190.425
-190.419
-190.421
-190.43
-190.45
-190.471
-190.508
-190.543
-190.598
-190.658
-190.728
-190.807
-190.892
-190.971
-191.058
-191.148
-191.238
-191.337
-191.411
-191.492
-191.561
-191.63
-191.691
-191.742
-191.775
-191.79
-191.782
-191.763
-191.724
-191.669
-191.597
-191.497
-191.369
-191.212
-191.019
-190.805
-190.568
-190.312
-190.01
-189.687
-189.336
-188.995
-188.627
-188.28
-187.916
-187.591
-187.257
-186.95
-186.633
-186.347
-186.047
-185.621
-185.051
-184.429
-183.775
-183.018
-181.991
-181.2
-180.624
-179.785
-178.917
-177.951
-176.922
-175.803
-174.591
-173.266
-171.813
-170.21
-168.43
-166.451
-164.222
-161.73
-158.903
-155.706
-152.064
-147.941
-143.219
-137.905
-131.829
-124.949
-117.141
-108.383
-98.6524
-88.0328
-76.6576
-64.8045
-52.82
-41.1371
-30.2005
-20.4531
-12.2781
-5.89132
-1.29092
1.65374
3.24283
3.84482
3.72826
3.20112
2.4805
1.78393
1.19145
0.729482
0.36807
0.141324
-0.00639203
-0.0397393
-0.0665072
-0.0603575
-0.0917946
-0.526838
0.115297
34.6799
32.5912
31.9018
31.5646
31.4127
31.7126
32.9126
35.6124
40.5811
48.5429
60.0428
75.2253
93.9401
115.424
139.22
162.578
187.329
196.812
221.941
223.31
216.074
170.374
82.6961
-38.553
-117.937
-167.106
-235.517
-289.255
-317.247
-337.221
-353.259
-367.553
-380.134
-393.732
-406.144
-416.555
-425.238
-432.384
-438.248
-442.368
-445.417
-445.218
-445.16
-443.455
-440.366
-436.75
-430.389
-424.743
-415.139
-403.377
-390.639
-376.233
-360.805
-342.345
-319.417
-294.384
-272.096
-247.076
-222.623
-207.692
-201.321
-198.725
-196.659
-195.354
-194.207
-193.403
-192.748
-192.274
-191.878
-191.564
-191.351
-191.187
-191.022
-190.872
-190.748
-190.649
-190.59
-190.543
-190.508
-190.469
-190.443
-190.425
-190.419
-190.421
-190.43
-190.45
-190.471
-190.508
-190.542
-190.598
-190.658
-190.728
-190.807
-190.892
-190.971
-191.058
-191.148
-191.238
-191.337
-191.411
-191.492
-191.561
-191.63
-191.691
-191.742
-191.775
-191.79
-191.782
-191.763
-191.724
-191.669
-191.597
-191.497
-191.369
-191.212
-191.019
-190.805
-190.567
-190.311
-190.009
-189.686
-189.335
-188.995
-188.626
-188.279
-187.916
-187.59
-187.256
-186.949
-186.632
-186.346
-186.046
-185.62
-185.049
-184.427
-183.773
-183.015
-181.989
-181.198
-180.622
-179.783
-178.914
-177.948
-176.919
-175.799
-174.587
-173.262
-171.809
-170.206
-168.426
-166.446
-164.216
-161.725
-158.897
-155.7
-152.057
-147.934
-143.211
-137.897
-131.821
-124.94
-117.132
-108.374
-98.6427
-88.0232
-76.6482
-64.7957
-52.812
-41.1302
-30.1947
-20.4486
-12.2749
-5.88926
-1.28983
1.65409
3.24265
3.84427
3.72747
3.20016
2.47944
1.78279
1.19023
0.728195
0.366716
0.139907
-0.00786473
-0.0412694
-0.0680837
-0.0619887
-0.0934628
-0.528545
0.113531
34.6898
32.6037
31.9138
31.5761
31.4236
31.723
32.9222
35.6208
40.5878
48.5473
60.0441
75.2231
93.9343
115.415
139.209
162.564
187.318
196.799
221.935
223.309
216.066
170.357
82.6931
-38.4989
-117.835
-166.97
-235.346
-289.065
-317.057
-337.038
-353.083
-367.384
-379.97
-393.572
-405.988
-416.403
-425.091
-432.242
-438.112
-442.238
-445.293
-445.102
-445.051
-443.353
-440.271
-436.663
-430.31
-424.673
-415.08
-403.328
-390.6
-376.205
-360.789
-342.343
-319.429
-294.405
-272.124
-247.112
-222.656
-207.714
-201.332
-198.732
-196.664
-195.359
-194.211
-193.406
-192.75
-192.276
-191.879
-191.565
-191.351
-191.188
-191.022
-190.873
-190.748
-190.649
-190.59
-190.543
-190.508
-190.469
-190.444
-190.425
-190.419
-190.421
-190.43
-190.45
-190.471
-190.508
-190.542
-190.598
-190.657
-190.728
-190.807
-190.892
-190.971
-191.058
-191.148
-191.238
-191.337
-191.411
-191.492
-191.561
-191.63
-191.691
-191.742
-191.775
-191.79
-191.782
-191.763
-191.724
-191.669
-191.596
-191.497
-191.369
-191.212
-191.019
-190.805
-190.567
-190.311
-190.009
-189.686
-189.335
-188.994
-188.626
-188.279
-187.915
-187.59
-187.255
-186.948
-186.631
-186.345
-186.045
-185.618
-185.048
-184.425
-183.771
-183.013
-181.986
-181.196
-180.619
-179.78
-178.911
-177.945
-176.916
-175.796
-174.584
-173.258
-171.805
-170.202
-168.421
-166.441
-164.211
-161.719
-158.891
-155.694
-152.051
-147.927
-143.204
-137.889
-131.812
-124.931
-117.123
-108.364
-98.6329
-88.0134
-76.6387
-64.7867
-52.8039
-41.1232
-30.1889
-20.4442
-12.2719
-5.8874
-1.28892
1.65434
3.24253
3.84401
3.72723
3.20009
2.47964
1.78332
1.19114
0.729476
0.368369
0.141923
-0.00552633
-0.0385998
-0.0651447
-0.0587197
-0.0899622
-0.524786
0.117717
34.7535
32.6761
31.9844
31.6448
31.4904
31.7877
32.9843
35.6793
40.6409
48.593
60.0802
75.2479
93.947
115.416
139.201
162.55
187.307
196.785
221.927
223.308
216.063
170.369
82.7644
-38.3162
-117.562
-166.631
-234.947
-288.627
-316.609
-336.595
-352.648
-366.957
-379.55
-393.156
-405.576
-415.996
-424.69
-431.848
-437.726
-441.86
-444.927
-444.746
-444.708
-443.024
-439.956
-436.364
-430.028
-424.409
-414.838
-403.11
-390.406
-376.036
-360.648
-342.238
-319.361
-294.369
-272.12
-247.143
-222.693
-207.737
-201.344
-198.74
-196.67
-195.364
-194.215
-193.409
-192.752
-192.278
-191.881
-191.566
-191.352
-191.188
-191.023
-190.873
-190.749
-190.649
-190.59
-190.543
-190.508
-190.47
-190.444
-190.425
-190.419
-190.421
-190.43
-190.449
-190.471
-190.508
-190.542
-190.598
-190.657
-190.728
-190.807
-190.892
-190.971
-191.058
-191.148
-191.238
-191.337
-191.411
-191.492
-191.561
-191.63
-191.691
-191.742
-191.775
-191.79
-191.782
-191.763
-191.724
-191.669
-191.596
-191.497
-191.369
-191.211
-191.019
-190.805
-190.567
-190.31
-190.008
-189.685
-189.334
-188.994
-188.625
-188.278
-187.914
-187.589
-187.255
-186.947
-186.63
-186.344
-186.044
-185.617
-185.046
-184.423
-183.769
-183.01
-181.984
-181.194
-180.617
-179.777
-178.908
-177.941
-176.912
-175.792
-174.58
-173.254
-171.801
-170.197
-168.416
-166.435
-164.205
-161.713
-158.884
-155.687
-152.043
-147.919
-143.195
-137.88
-131.802
-124.921
-117.112
-108.353
-98.6219
-88.0025
-76.6283
-64.777
-52.7951
-41.1154
-30.1823
-20.4386
-12.267
-5.8828
-1.28409
1.6599
3.24931
3.85241
3.7376
3.21265
2.4946
1.80075
1.21103
0.751776
0.392936
0.16862
0.0230062
-0.00822502
-0.0333052
-0.0251248
-0.0551677
-0.488665
0.155962
34.9126
32.847
32.1528
31.8102
31.6529
31.947
33.1396
35.8282
40.7806
48.7195
60.1893
75.3354
94.0095
115.452
139.213
162.543
187.295
196.77
221.919
223.31
216.078
170.436
82.9157
-38.0342
-117.178
-166.174
-234.431
-288.064
-316.023
-336.003
-352.057
-366.368
-378.963
-392.568
-404.989
-415.41
-424.107
-431.268
-437.151
-441.29
-444.365
-444.193
-444.165
-442.493
-439.439
-435.862
-429.542
-423.941
-414.394
-402.69
-390.014
-375.673
-360.318
-341.956
-319.135
-294.202
-272.021
-247.134
-222.731
-207.763
-201.357
-198.748
-196.677
-195.369
-194.219
-193.413
-192.755
-192.28
-191.883
-191.567
-191.353
-191.189
-191.023
-190.874
-190.749
-190.65
-190.59
-190.543
-190.508
-190.47
-190.444
-190.425
-190.419
-190.421
-190.43
-190.449
-190.471
-190.508
-190.542
-190.598
-190.657
-190.728
-190.807
-190.892
-190.971
-191.058
-191.148
-191.238
-191.337
-191.411
-191.492
-191.561
-191.63
-191.691
-191.742
-191.775
-191.79
-191.782
-191.763
-191.724
-191.669
-191.596
-191.496
-191.368
-191.211
-191.018
-190.804
-190.566
-190.31
-190.008
-189.684
-189.333
-188.993
-188.624
-188.277
-187.914
-187.588
-187.254
-186.946
-186.629
-186.343
-186.043
-185.615
-185.043
-184.42
-183.766
-183.006
-181.98
-181.191
-180.614
-179.773
-178.904
-177.937
-176.907
-175.787
-174.574
-173.248
-171.794
-170.19
-168.408
-166.427
-164.197
-161.704
-158.875
-155.676
-152.032
-147.906
-143.182
-137.867
-131.789
-124.906
-117.098
-108.339
-98.608
-87.9895
-76.6162
-64.7661
-52.7852
-41.1061
-30.1727
-20.4275
-12.2532
-5.86527
-1.26217
1.68667
3.28135
3.89012
3.78157
3.26303
2.55138
1.86375
1.28003
0.826491
0.472895
0.253404
0.111869
0.0846752
0.0627553
0.0746856
0.0471575
-0.383557
0.265447
35.1421
33.0837
32.3878
32.0427
31.8827
32.174
33.3631
36.046
40.9897
48.9161
60.3684
75.4919
94.1378
115.545
139.266
162.558
187.287
196.752
221.91
223.32
216.121
170.55
83.0859
-37.7556
-116.817
-165.766
-233.979
-287.572
-315.509
-335.48
-351.528
-365.836
-378.429
-392.03
-404.448
-414.866
-423.561
-430.72
-436.604
-440.743
-443.82
-443.651
-443.627
-441.958
-438.909
-435.335
-429.022
-423.428
-413.891
-402.199
-389.536
-375.212
-359.875
-341.546
-318.768
-293.887
-271.782
-247.028
-222.75
-207.792
-201.371
-198.756
-196.684
-195.375
-194.224
-193.417
-192.758
-192.282
-191.885
-191.569
-191.354
-191.19
-191.024
-190.875
-190.75
-190.65
-190.59
-190.543
-190.508
-190.47
-190.444
-190.425
-190.419
-190.421
-190.43
-190.449
-190.471
-190.508
-190.542
-190.598
-190.657
-190.728
-190.806
-190.891
-190.971
-191.058
-191.147
-191.238
-191.337
-191.411
-191.492
-191.561
-191.63
-191.691
-191.742
-191.775
-191.79
-191.782
-191.763
-191.724
-191.669
-191.596
-191.496
-191.368
-191.21
-191.017
-190.803
-190.565
-190.308
-190.006
-189.683
-189.332
-188.991
-188.622
-188.275
-187.911
-187.586
-187.251
-186.944
-186.626
-186.34
-186.039
-185.61
-185.038
-184.414
-183.759
-182.998
-181.972
-181.184
-180.606
-179.764
-178.894
-177.926
-176.896
-175.775
-174.562
-173.235
-171.78
-170.176
-168.393
-166.411
-164.18
-161.686
-158.856
-155.657
-152.011
-147.885
-143.16
-137.844
-131.766
-124.884
-117.077
-108.319
-98.59
-87.9736
-76.6025
-64.754
-52.7737
-41.0936
-30.1564
-20.4043
-12.2204
-5.82156
-1.20717
1.75256
3.35774
3.97672
3.8785
3.37004
2.66727
1.98743
1.41113
0.964527
0.617173
0.403329
0.26648
0.24389
0.225495
0.241615
0.216795
-0.210842
0.442853
35.3638
33.3062
32.6096
32.2631
32.1016
32.3912
33.5781
36.2584
41.1981
49.1185
60.5619
75.6726
94.3005
115.681
139.365
162.609
187.296
196.731
221.9
223.341
216.178
170.656
83.2192
-37.5383
-116.546
-165.471
-233.653
-287.216
-315.138
-335.101
-351.145
-365.448
-378.038
-391.635
-404.048
-414.462
-423.155
-430.311
-436.192
-440.329
-443.405
-443.236
-443.21
-441.54
-438.489
-434.914
-428.601
-423.005
-413.47
-401.779
-389.12
-374.8
-359.468
-341.148
-318.379
-293.511
-271.442
-246.794
-222.703
-207.824
-201.385
-198.765
-196.692
-195.381
-194.23
-193.421
-192.762
-192.285
-191.887
-191.57
-191.355
-191.191
-191.025
-190.875
-190.75
-190.651
-190.591
-190.544
-190.509
-190.47
-190.444
-190.425
-190.419
-190.421
-190.43
-190.449
-190.471
-190.508
-190.542
-190.598
-190.657
-190.728
-190.806
-190.891
-190.971
-191.057
-191.147
-191.238
-191.336
-191.41
-191.492
-191.561
-191.63
-191.691
-191.741
-191.774
-191.789
-191.781
-191.761
-191.722
-191.667
-191.594
-191.494
-191.365
-191.207
-191.014
-190.799
-190.561
-190.304
-190.001
-189.677
-189.326
-188.985
-188.616
-188.269
-187.904
-187.578
-187.243
-186.935
-186.617
-186.33
-186.028
-185.597
-185.024
-184.399
-183.743
-182.981
-181.954
-181.167
-180.588
-179.744
-178.874
-177.905
-176.874
-175.751
-174.537
-173.21
-171.754
-170.148
-168.365
-166.382
-164.15
-161.655
-158.824
-155.623
-151.977
-147.851
-143.126
-137.811
-131.734
-124.854
-117.049
-108.295
-98.5691
-87.956
-76.5876
-64.7407
-52.7602
-41.0768
-30.1325
-20.3686
-12.1694
-5.75317
-1.12137
1.8545
3.47414
4.10601
4.01567
3.51484
2.8185
2.14404
1.57285
1.13094
0.787716
0.577534
0.443635
0.423939
0.407656
0.426354
0.403041
-0.02271
0.633642
35.54
33.4788
32.7826
32.4356
32.2732
32.5619
33.7477
36.4271
41.3655
49.2835
60.7231
75.8278
94.4465
115.816
139.483
162.691
187.33
196.712
221.891
223.363
216.212
170.69
83.2966
-37.3848
-116.36
-165.278
-233.433
-286.97
-314.883
-334.839
-350.879
-365.179
-377.766
-391.358
-403.767
-414.177
-422.865
-430.018
-435.895
-440.029
-443.101
-442.931
-442.902
-441.23
-438.177
-434.6
-428.286
-422.686
-413.152
-401.461
-388.801
-374.482
-359.148
-340.827
-318.053
-293.181
-271.095
-246.479
-222.546
-207.842
-201.401
-198.773
-196.7
-195.388
-194.236
-193.426
-192.766
-192.288
-191.889
-191.572
-191.357
-191.192
-191.026
-190.876
-190.751
-190.651
-190.591
-190.544
-190.509
-190.47
-190.444
-190.425
-190.419
-190.421
-190.43
-190.449
-190.47
-190.508
-190.542
-190.598
-190.657
-190.727
-190.806
-190.891
-190.97
-191.057
-191.147
-191.237
-191.335
-191.409
-191.491
-191.559
-191.628
-191.689
-191.739
-191.771
-191.786
-191.777
-191.757
-191.717
-191.661
-191.587
-191.486
-191.357
-191.199
-191.005
-190.789
-190.55
-190.292
-189.989
-189.664
-189.312
-188.97
-188.601
-188.253
-187.888
-187.561
-187.226
-186.917
-186.598
-186.309
-186.005
-185.572
-184.997
-184.372
-183.714
-182.95
-181.924
-181.138
-180.557
-179.711
-178.84
-177.87
-176.838
-175.715
-174.5
-173.172
-171.715
-170.109
-168.325
-166.341
-164.109
-161.614
-158.783
-155.583
-151.938
-147.812
-143.089
-137.777
-131.702
-124.825
-117.023
-108.272
-98.5495
-87.939
-76.5724
-64.7261
-52.7444
-41.0573
-30.1062
-20.332
-12.1187
-5.6852
-1.03458
1.9598
3.59615
4.24218
4.1538
3.65355
2.95927
2.2876
1.71908
1.2796
0.938442
0.730063
0.597564
0.579255
0.563911
0.583829
0.561105
0.136263
0.793723
35.6758
33.6066
32.9121
32.565
32.4024
32.6908
33.8762
36.5549
41.4922
49.4084
60.8451
75.9457
94.5584
115.923
139.583
162.782
187.387
196.701
221.888
223.37
216.192
170.621
83.2899
-37.2853
-116.24
-165.164
-233.288
-286.801
-314.709
-334.661
-350.698
-364.996
-377.581
-391.169
-403.574
-413.98
-422.665
-429.814
-435.688
-439.817
-442.887
-442.714
-442.681
-441.007
-437.951
-434.37
-428.055
-422.447
-412.913
-401.219
-388.556
-374.233
-358.892
-340.567
-317.793
-292.916
-270.794
-246.162
-222.286
-207.809
-201.419
-198.781
-196.706
-195.394
-194.242
-193.431
-192.77
-192.292
-191.892
-191.575
-191.358
-191.194
-191.028
-190.877
-190.752
-190.652
-190.592
-190.544
-190.509
-190.471
-190.444
-190.426
-190.419
-190.421
-190.43
-190.449
-190.47
-190.507
-190.541
-190.597
-190.656
-190.726
-190.805
-190.889
-190.968
-191.055
-191.144
-191.234
-191.332
-191.405
-191.486
-191.554
-191.622
-191.682
-191.731
-191.762
-191.777
-191.767
-191.746
-191.705
-191.648
-191.573
-191.471
-191.341
-191.182
-190.987
-190.77
-190.53
-190.271
-189.967
-189.642
-189.289
-188.947
-188.577
-188.228
-187.863
-187.535
-187.198
-186.889
-186.569
-186.279
-185.973
-185.538
-184.963
-184.336
-183.678
-182.913
-181.887
-181.102
-180.52
-179.673
-178.801
-177.831
-176.799
-175.676
-174.461
-173.133
-171.677
-170.071
-168.287
-166.305
-164.073
-161.579
-158.75
-155.552
-151.909
-147.786
-143.065
-137.754
-131.682
-124.807
-117.006
-108.256
-98.534
-87.9235
-76.5567
-64.7097
-52.727
-41.0384
-30.0851
-20.3078
-12.0889
-5.64577
-0.981279
2.02977
3.68317
4.34451
4.2657
3.7652
3.0715
2.40126
1.83425
1.39611
1.05609
0.848699
0.71695
0.69941
0.68455
0.705167
0.682708
0.258423
0.91646
35.7762
33.6953
33.0031
32.6563
32.4937
32.7821
33.9675
36.6459
41.5826
49.4979
60.9331
76.0316
94.6414
116.002
139.658
162.858
187.453
196.708
221.891
223.355
216.116
170.467
83.1667
-37.2373
-116.155
-165.103
-233.186
-286.675
-314.583
-334.534
-350.569
-364.866
-377.45
-391.034
-403.437
-413.839
-422.521
-429.666
-435.537
-439.663
-442.729
-442.555
-442.519
-440.841
-437.782
-434.197
-427.879
-422.264
-412.729
-401.032
-388.364
-374.035
-358.684
-340.354
-317.58
-292.692
-270.533
-245.877
-221.982
-207.678
-201.434
-198.791
-196.713
-195.399
-194.248
-193.436
-192.774
-192.295
-191.896
-191.577
-191.36
-191.195
-191.029
-190.879
-190.753
-190.653
-190.592
-190.544
-190.509
-190.471
-190.444
-190.425
-190.419
-190.42
-190.429
-190.448
-190.469
-190.506
-190.539
-190.594
-190.653
-190.723
-190.801
-190.885
-190.963
-191.049
-191.138
-191.227
-191.324
-191.396
-191.476
-191.543
-191.611
-191.669
-191.718
-191.748
-191.761
-191.75
-191.728
-191.686
-191.628
-191.553
-191.45
-191.319
-191.159
-190.963
-190.746
-190.505
-190.246
-189.942
-189.616
-189.264
-188.921
-188.551
-188.202
-187.836
-187.508
-187.171
-186.861
-186.541
-186.25
-185.943
-185.508
-184.933
-184.307
-183.649
-182.883
-181.86
-181.077
-180.493
-179.646
-178.775
-177.806
-176.774
-175.652
-174.438
-173.111
-171.656
-170.051
-168.269
-166.287
-164.057
-161.564
-158.736
-155.54
-151.898
-147.777
-143.057
-137.747
-131.674
-124.798
-116.996
-108.244
-98.5197
-87.9073
-76.5391
-64.6914
-52.7087
-41.0212
-30.0705
-20.2968
-12.081
-5.63856
-0.970163
2.05009
3.71664
4.3925
4.33722
3.84817
3.15796
2.4884
1.92181
1.48406
1.14438
0.937278
0.805703
0.788394
0.773588
0.794449
0.771913
0.347881
1.00596
35.8502
33.7551
33.0653
32.719
32.5565
32.845
34.0303
36.7086
41.6449
49.5595
60.9936
76.0907
94.6988
116.058
139.712
162.912
187.515
196.734
221.896
223.322
216.003
170.264
82.9574
-37.26
-116.08
-165.073
-233.104
-286.567
-314.482
-334.434
-350.469
-364.766
-377.351
-390.93
-403.33
-413.73
-422.409
-429.551
-435.419
-439.541
-442.604
-442.43
-442.388
-440.708
-437.646
-434.056
-427.736
-422.11
-412.577
-400.876
-388.202
-373.867
-358.504
-340.171
-317.401
-292.5
-270.296
-245.615
-221.682
-207.436
-201.425
-198.804
-196.723
-195.406
-194.253
-193.44
-192.778
-192.299
-191.899
-191.579
-191.362
-191.196
-191.03
-190.88
-190.754
-190.653
-190.592
-190.544
-190.508
-190.47
-190.443
-190.424
-190.417
-190.418
-190.426
-190.445
-190.465
-190.501
-190.535
-190.589
-190.647
-190.716
-190.793
-190.877
-190.954
-191.039
-191.127
-191.215
-191.311
-191.383
-191.462
-191.528
-191.595
-191.652
-191.7
-191.729
-191.742
-191.731
-191.708
-191.666
-191.608
-191.532
-191.429
-191.298
-191.138
-190.943
-190.726
-190.486
-190.227
-189.923
-189.599
-189.247
-188.904
-188.535
-188.187
-187.822
-187.494
-187.157
-186.847
-186.527
-186.237
-185.93
-185.495
-184.92
-184.296
-183.638
-182.873
-181.854
-181.072
-180.487
-179.641
-178.77
-177.802
-176.771
-175.65
-174.436
-173.11
-171.656
-170.051
-168.269
-166.288
-164.058
-161.566
-158.738
-155.541
-151.899
-147.777
-143.055
-137.743
-131.668
-124.789
-116.984
-108.229
-98.5022
-87.8879
-76.5185
-64.6707
-52.6892
-41.0044
-30.0581
-20.2907
-12.0824
-5.64756
-0.984557
2.03481
3.70609
4.39141
4.35467
3.89048
3.21393
2.55077
1.98466
1.54707
1.20736
1.00028
0.868651
0.851376
0.836444
0.857378
0.834592
0.410715
1.06858
35.9049
33.7964
33.1082
32.7624
32.6
32.8885
34.0738
36.7519
41.6877
49.6015
61.0343
76.1297
94.7361
116.094
139.748
162.947
187.566
196.774
221.905
223.275
215.864
170.035
82.7302
-37.3368
-116.025
-165.056
-233.025
-286.46
-314.391
-334.345
-350.383
-364.679
-377.266
-390.841
-403.238
-413.635
-422.312
-429.45
-435.316
-439.434
-442.494
-442.319
-442.272
-440.59
-437.524
-433.929
-427.606
-421.968
-412.438
-400.734
-388.055
-373.713
-358.338
-340.003
-317.245
-292.333
-270.078
-245.378
-221.387
-207.125
-201.356
-198.819
-196.74
-195.416
-194.26
-193.445
-192.781
-192.301
-191.901
-191.581
-191.362
-191.196
-191.03
-190.879
-190.753
-190.652
-190.59
-190.542
-190.506
-190.467
-190.44
-190.42
-190.412
-190.413
-190.421
-190.439
-190.458
-190.494
-190.526
-190.58
-190.637
-190.706
-190.782
-190.865
-190.942
-191.026
-191.114
-191.202
-191.297
-191.368
-191.447
-191.513
-191.58
-191.638
-191.685
-191.715
-191.728
-191.717
-191.695
-191.654
-191.596
-191.521
-191.419
-191.289
-191.13
-190.935
-190.72
-190.481
-190.223
-189.921
-189.597
-189.247
-188.905
-188.537
-188.189
-187.825
-187.498
-187.162
-186.852
-186.533
-186.243
-185.935
-185.5
-184.927
-184.304
-183.646
-182.88
-181.865
-181.086
-180.497
-179.65
-178.78
-177.812
-176.781
-175.66
-174.446
-173.12
-171.665
-170.06
-168.277
-166.295
-164.064
-161.571
-158.741
-155.542
-151.898
-147.773
-143.049
-137.734
-131.656
-124.774
-116.966
-108.208
-98.4798
-87.8642
-76.4944
-64.6474
-52.668
-40.9866
-30.0452
-20.2843
-12.0843
-5.65888
-1.00545
2.00616
3.67381
4.36093
4.33013
3.88452
3.23009
2.58439
2.02589
1.59096
1.25149
1.04444
0.91271
0.895481
0.880395
0.90141
0.878305
0.454603
1.11215
35.9431
33.8265
33.1387
32.7934
32.6311
32.9196
34.1048
36.7826
41.7178
49.6303
61.0613
76.1545
94.7584
116.114
139.768
162.965
187.607
196.822
221.921
223.218
215.698
169.778
82.5069
-37.3925
-116.018
-165.044
-232.937
-286.34
-314.297
-334.26
-350.301
-364.597
-377.186
-390.755
-403.149
-413.543
-422.219
-429.354
-435.216
-439.33
-442.387
-442.213
-442.159
-440.474
-437.403
-433.802
-427.478
-421.824
-412.3
-400.595
-387.91
-373.56
-358.172
-339.839
-317.103
-292.187
-269.878
-245.169
-221.1
-206.798
-201.18
-198.822
-196.761
-195.433
-194.272
-193.452
-192.785
-192.303
-191.902
-191.582
-191.362
-191.195
-191.029
-190.878
-190.751
-190.649
-190.587
-190.538
-190.501
-190.462
-190.434
-190.414
-190.406
-190.406
-190.413
-190.431
-190.45
-190.485
-190.517
-190.57
-190.628
-190.696
-190.772
-190.855
-190.932
-191.016
-191.104
-191.192
-191.288
-191.36
-191.439
-191.506
-191.573
-191.632
-191.681
-191.711
-191.725
-191.716
-191.695
-191.654
-191.598
-191.524
-191.423
-191.294
-191.136
-190.943
-190.729
-190.491
-190.235
-189.933
-189.611
-189.261
-188.921
-188.553
-188.207
-187.843
-187.517
-187.181
-186.871
-186.552
-186.262
-185.951
-185.515
-184.942
-184.319
-183.658
-182.891
-181.882
-181.106
-180.511
-179.663
-178.792
-177.823
-176.792
-175.669
-174.455
-173.127
-171.671
-170.065
-168.281
-166.297
-164.064
-161.569
-158.737
-155.536
-151.889
-147.762
-143.035
-137.717
-131.636
-124.752
-116.941
-108.182
-98.4519
-87.8358
-76.4665
-64.6211
-52.6444
-40.967
-30.0308
-20.2765
-12.0843
-5.66781
-1.02417
1.97772
3.63735
4.32008
4.28946
3.84828
3.2086
2.58096
2.04102
1.61626
1.28205
1.0758
0.944164
0.92703
0.911797
0.932965
0.909504
0.486054
1.14324
35.9686
33.8493
33.1611
32.8162
32.654
32.9426
34.1276
36.805
41.7393
49.6502
61.0788
76.1689
94.7694
116.122
139.773
162.971
187.641
196.87
221.948
223.149
215.499
169.481
82.2764
-37.3803
-116.016
-165.06
-232.828
-286.193
-314.191
-334.171
-350.216
-364.513
-377.103
-390.665
-403.057
-413.448
-422.122
-429.253
-435.112
-439.22
-442.274
-442.102
-442.041
-440.353
-437.277
-433.668
-427.342
-421.67
-412.153
-400.448
-387.759
-373.401
-357.998
-339.669
-316.968
-292.058
-269.698
-244.99
-220.843
-206.451
-200.88
-198.797
-196.783
-195.456
-194.291
-193.466
-192.794
-192.307
-191.905
-191.583
-191.361
-191.193
-191.027
-190.875
-190.748
-190.645
-190.582
-190.533
-190.496
-190.456
-190.428
-190.408
-190.399
-190.399
-190.406
-190.424
-190.443
-190.479
-190.511
-190.565
-190.622
-190.691
-190.767
-190.851
-190.929
-191.014
-191.102
-191.191
-191.288
-191.361
-191.442
-191.51
-191.578
-191.638
-191.687
-191.719
-191.734
-191.726
-191.706
-191.667
-191.611
-191.538
-191.437
-191.309
-191.152
-190.96
-190.747
-190.51
-190.253
-189.952
-189.631
-189.282
-188.942
-188.575
-188.229
-187.866
-187.54
-187.204
-186.894
-186.574
-186.282
-185.968
-185.528
-184.954
-184.33
-183.667
-182.898
-181.895
-181.123
-180.521
-179.67
-178.798
-177.827
-176.795
-175.671
-174.456
-173.127
-171.669
-170.061
-168.276
-166.291
-164.056
-161.558
-158.724
-155.521
-151.872
-147.742
-143.013
-137.692
-131.609
-124.722
-116.91
-108.149
-98.4181
-87.8021
-76.4341
-64.5911
-52.618
-40.9452
-30.0148
-20.2672
-12.0826
-5.67433
-1.03946
1.95331
3.60417
4.27968
4.24494
3.80382
3.16835
2.5504
2.02629
1.61721
1.29614
1.09576
0.967223
0.95043
0.935108
0.956489
0.932614
0.509508
1.16628
35.988
33.8665
33.1777
32.8335
32.6714
32.9599
34.1448
36.8216
41.7547
49.6636
61.089
76.1751
94.771
116.117
139.766
162.969
187.67
196.908
221.994
223.073
215.259
169.13
82.0221
-37.304
-115.931
-165.114
-232.721
-286.003
-314.062
-334.071
-350.124
-364.421
-377.013
-390.566
-402.953
-413.342
-422.015
-429.141
-434.996
-439.099
-442.149
-441.98
-441.91
-440.218
-437.136
-433.519
-427.191
-421.496
-411.989
-400.287
-387.594
-373.228
-357.811
-339.488
-316.837
-291.945
-269.542
-244.843
-220.644
-206.067
-200.517
-198.701
-196.801
-195.48
-194.314
-193.485
-192.809
-192.317
-191.911
-191.586
-191.361
-191.193
-191.026
-190.874
-190.746
-190.643
-190.579
-190.529
-190.492
-190.453
-190.425
-190.404
-190.397
-190.397
-190.404
-190.423
-190.443
-190.478
-190.512
-190.566
-190.624
-190.693
-190.771
-190.855
-190.934
-191.02
-191.11
-191.2
-191.297
-191.372
-191.453
-191.522
-191.591
-191.651
-191.702
-191.734
-191.75
-191.742
-191.722
-191.684
-191.628
-191.555
-191.455
-191.327
-191.17
-190.978
-190.765
-190.528
-190.272
-189.971
-189.65
-189.303
-188.963
-188.597
-188.25
-187.889
-187.562
-187.226
-186.915
-186.594
-186.298
-185.979
-185.535
-184.96
-184.335
-183.669
-182.897
-181.902
-181.134
-180.523
-179.669
-178.796
-177.824
-176.791
-175.666
-174.449
-173.118
-171.66
-170.05
-168.263
-166.276
-164.039
-161.54
-158.703
-155.498
-151.846
-147.714
-142.982
-137.659
-131.574
-124.685
-116.871
-108.109
-98.3776
-87.7624
-76.3964
-64.5567
-52.5882
-40.9209
-29.9971
-20.2567
-12.0797
-5.67921
-1.05225
1.93255
3.57547
4.24343
4.20261
3.75818
3.12325
2.50998
1.99323
1.59622
1.28765
1.09981
0.980007
0.966945
0.952966
0.974737
0.950362
0.527675
1.18396
36.0029
33.8798
33.1902
32.8465
32.6847
32.9732
34.1578
36.8339
41.7653
49.6715
61.0929
76.1736
94.7633
116.101
139.749
162.956
187.693
196.932
222.068
222.993
214.972
168.711
81.7289
-37.1725
-115.734
-165.13
-232.632
-285.787
-313.891
-333.95
-350.021
-364.318
-376.911
-390.45
-402.831
-413.217
-421.889
-429.011
-434.862
-438.958
-442.004
-441.84
-441.76
-440.063
-436.975
-433.346
-427.019
-421.295
-411.8
-400.103
-387.409
-373.035
-357.603
-339.288
-316.705
-291.846
-269.417
-244.735
-220.528
-205.671
-200.127
-198.447
-196.811
-195.505
-194.339
-193.507
-192.828
-192.332
-191.923
-191.595
-191.367
-191.196
-191.029
-190.876
-190.748
-190.644
-190.579
-190.53
-190.493
-190.454
-190.427
-190.407
-190.4
-190.401
-190.409
-190.428
-190.449
-190.485
-190.519
-190.574
-190.633
-190.703
-190.781
-190.866
-190.946
-191.033
-191.123
-191.214
-191.312
-191.387
-191.469
-191.538
-191.608
-191.668
-191.718
-191.751
-191.766
-191.759
-191.739
-191.701
-191.645
-191.571
-191.471
-191.343
-191.186
-190.994
-190.781
-190.544
-190.287
-189.987
-189.667
-189.32
-188.981
-188.616
-188.27
-187.909
-187.581
-187.245
-186.932
-186.61
-186.31
-185.984
-185.535
-184.959
-184.333
-183.665
-182.89
-181.904
-181.139
-180.519
-179.662
-178.787
-177.814
-176.779
-175.653
-174.434
-173.102
-171.642
-170.03
-168.242
-166.252
-164.014
-161.512
-158.673
-155.465
-151.812
-147.676
-142.943
-137.617
-131.529
-124.639
-116.823
-108.06
-98.3293
-87.7157
-76.3526
-64.5173
-52.5544
-40.8938
-29.9775
-20.245
-12.0759
-5.68311
-1.06345
1.91435
3.55048
4.21167
4.16451
3.71507
3.0777
2.46556
1.95361
1.56359
1.26316
1.08667
0.977042
0.973126
0.964341
0.988743
0.964324
0.54221
1.19787
36.0128
33.8901
33.1992
32.8562
32.6947
32.9832
34.1674
36.8425
41.7719
49.6745
61.0906
76.1645
94.7459
116.075
139.721
162.927
187.704
196.943
222.185
222.917
214.632
168.212
81.3839
-36.9907
-115.433
-165.032
-232.477
-285.563
-313.684
-333.791
-349.897
-364.2
-376.794
-390.314
-402.686
-413.067
-421.739
-428.855
-434.702
-438.791
-441.831
-441.675
-441.583
-439.88
-436.786
-433.141
-426.816
-421.056
-411.579
-399.887
-387.195
-372.814
-357.368
-339.064
-316.57
-291.761
-269.326
-244.676
-220.517
-205.314
-199.671
-198.027
-196.794
-195.53
-194.365
-193.529
-192.847