/*--------------------------------*- C++ -*----------------------------------*\
| =========                 |                                                 |
| \\      /  F ield         | OpenFOAM: The Open Source CFD Toolbox           |
|  \\    /   O peration     | Version:  2212                                  |
|   \\  /    A nd           | Website:  www.openfoam.com                      |
|    \\/     M anipulation  |                                                 |
\*---------------------------------------------------------------------------*/
FoamFile
{
    version     2.0;
    format      ascii;
    arch        "LSB;label=32;scalar=64";
    class       volVectorField;
    location    "1";
    object      U;
}
// * * * * * * * * * * * * * * * * * * * * * * * * * * * * * * * * * * * * * //

dimensions      [0 1 -1 0 0 0 0];

internalField   nonuniform List<vector> 
10368
(
(0.690898 9.38426e-05 0)
(0.708448 9.67352e-05 0)
(0.7028 9.58076e-05 0)
(0.696599 9.43117e-05 6.10963e-25)
(0.690586 9.16063e-05 -6.56347e-25)
(0.683928 8.53283e-05 1.47931e-24)
(0.675224 7.12142e-05 -1.65396e-24)
(0.662476 4.22952e-05 0)
(0.643381 -1.00501e-05 0)
(0.615613 -9.4689e-05 0)
(0.576991 -0.000217819 0)
(0.526165 -0.000381977 0)
(0.461885 -0.000580692 0)
(0.383685 -0.000808936 0)
(0.291884 -0.00101436 0)
(0.182322 -0.00123585 4.89547e-24)
(0.0891108 -0.00100049 0)
(-0.073472 -0.00115456 0)
(-0.0626984 -0.0121 2.4001e-17)
(0.154317 0.0607314 -8.90747e-23)
(0.384085 0.21383 0)
(0.684123 0.432336 6.30469e-17)
(1.00301 0.616339 -3.86563e-24)
(1.23826 0.644771 3.75128e-24)
(1.3007 0.569142 -1.9666e-17)
(1.38358 0.538628 2.71765e-17)
(1.48471 0.506054 0)
(1.50208 0.436363 -2.27184e-17)
(1.47865 0.369192 2.46756e-17)
(1.4581 0.317554 2.61236e-17)
(1.44189 0.277307 2.74194e-17)
(1.42875 0.244196 -2.8749e-17)
(1.42128 0.217084 0)
(1.41835 0.192264 0)
(1.41131 0.167566 -6.48269e-23)
(1.40158 0.143521 6.6662e-23)
(1.38986 0.120399 -1.8658e-17)
(1.37748 0.0983035 1.60899e-22)
(1.36231 0.0767958 -7.87755e-23)
(1.3461 0.0561261 5.48681e-18)
(1.32338 0.0354038 0)
(1.30064 0.0168156 1.52805e-18)
(1.27848 -0.00112708 0)
(1.25279 -0.0181934 1.03927e-22)
(1.22642 -0.0342753 -1.65575e-22)
(1.19471 -0.0500954 1.16602e-22)
(1.1627 -0.0642545 4.04002e-18)
(1.12309 -0.0789168 -1.30272e-22)
(1.06919 -0.0912932 6.94692e-23)
(1.01497 -0.101477 -4.72113e-18)
(0.957105 -0.109754 4.94496e-18)
(0.893118 -0.11577 0)
(0.814257 -0.119409 0)
(0.702531 -0.116796 -1.47988e-22)
(0.572343 -0.106114 -5.63907e-18)
(0.453744 -0.0921489 1.03986e-23)
(0.303069 -0.0707023 1.14581e-17)
(0.0720377 -0.0223518 0)
(-0.130748 0.0403879 -5.28185e-18)
(-0.179596 0.0709089 4.87336e-18)
(-0.12848 0.0629185 1.35846e-22)
(-0.0952024 0.0561786 0)
(-0.0766822 0.0511843 0)
(-0.0619181 0.0451191 6.43333e-23)
(-0.0522211 0.0405587 -1.03117e-22)
(-0.0440128 0.0357374 0)
(-0.0381652 0.0318214 -4.10256e-18)
(-0.0336211 0.0284307 6.27324e-23)
(-0.0303763 0.0258876 4.11913e-18)
(-0.0276104 0.0234014 0)
(-0.0259177 0.0216237 0)
(-0.0254383 0.0210012 -4.23751e-18)
(-0.0252107 0.0207243 4.26799e-18)
(-0.0246804 0.0201281 -4.3031e-18)
(-0.0241672 0.0194037 4.34749e-18)
(-0.0237575 0.0186209 4.40143e-18)
(-0.0237896 0.0181078 4.46037e-18)
(-0.0243148 0.0179897 0)
(-0.0250754 0.0180451 9.13888e-18)
(-0.0258126 0.0180774 -4.62018e-18)
(-0.0264827 0.0179624 4.67379e-18)
(-0.027242 0.0178401 1.44304e-22)
(-0.0281004 0.0177165 0)
(-0.0291092 0.0176347 0)
(-0.0301706 0.0175292 0)
(-0.0313586 0.0174355 -4.93874e-18)
(-0.0325444 0.0172922 3.04342e-22)
(-0.033847 0.0171389 5.03194e-18)
(-0.0351295 0.016937 -5.0747e-18)
(-0.0364534 0.0166709 -5.11596e-18)
(-0.0380277 0.0164892 -5.15332e-18)
(-0.039677 0.0162933 0)
(-0.0415611 0.0161557 0)
(-0.043724 0.0161023 5.24607e-18)
(-0.0458966 0.0160264 0)
(-0.0480364 0.0158732 0)
(-0.0503802 0.0157447 -1.62123e-22)
(-0.0528501 0.0156253 1.62555e-22)
(-0.0557464 0.0156134 -1.63069e-22)
(-0.058617 0.0156069 2.67741e-18)
(-0.0613639 0.0154987 -1.63963e-22)
(-0.0642565 0.0154085 2.40329e-25)
(-0.0671998 0.0152977 -2.69008e-18)
(-0.0704018 0.0152435 -2.6925e-18)
(-0.0737978 0.0152414 2.69478e-18)
(-0.0772933 0.015274 -2.69627e-18)
(-0.0807979 0.0153097 0)
(-0.0841676 0.0153115 2.69733e-18)
(-0.0874646 0.0152668 3.29251e-22)
(-0.0908303 0.0152258 -3.29164e-22)
(-0.0942198 0.0151787 2.69554e-18)
(-0.0977764 0.0151611 1.64372e-22)
(-0.101439 0.0151801 -1.64332e-22)
(-0.10506 0.015195 0)
(-0.108623 0.0151906 -2.68599e-18)
(-0.111923 0.0151171 0)
(-0.114986 0.0149349 2.67759e-18)
(-0.118013 0.0146896 -1.62998e-22)
(-0.121187 0.0144268 1.62866e-22)
(-0.124145 0.0141165 -1.62214e-22)
(-0.126592 0.0136274 1.32638e-18)
(-0.128516 0.0129389 -1.32185e-18)
(-0.13032 0.0120742 -1.60619e-22)
(-0.131906 0.0111005 1.31173e-18)
(-0.133294 0.00995036 -1.30582e-18)
(-0.134529 0.00870537 0)
(-0.135814 0.0073398 1.29309e-18)
(-0.137409 0.00600019 6.42789e-19)
(-0.13923 0.00465571 5.21263e-25)
(-0.141441 0.0033956 -3.17743e-19)
(-0.144582 0.00226539 0)
(-0.15013 0.00158338 -3.07264e-22)
(-0.156875 0.00150253 -1.56601e-19)
(-0.161991 0.00164917 -3.12571e-19)
(-0.165705 0.00167508 -1.55281e-19)
(-0.170158 0.0017893 1.54578e-19)
(-0.175538 0.00229444 1.54211e-19)
(-0.175649 0.00252285 3.06213e-19)
(-0.171695 0.00129912 2.97585e-22)
(-0.174454 0.000201759 0)
(-0.179925 0.000242857 0)
(-0.182871 0.000260756 0)
(-0.185842 0.000281483 0)
(-0.188365 0.000299208 -2.66349e-22)
(-0.190868 0.000318401 2.56654e-22)
(-0.19325 0.000337616 0)
(-0.195609 0.000358219 0)
(-0.19792 0.000379834 0)
(-0.200208 0.000403314 0)
(-0.202416 0.000427963 1.86234e-22)
(-0.20458 0.000455543 -1.74193e-22)
(-0.206542 0.000484127 0)
(-0.208352 0.000515346 0)
(-0.210146 0.000550174 1.34396e-22)
(-0.211958 0.000588309 1.22473e-22)
(-0.213385 0.000628443 -1.08483e-22)
(-0.214036 0.000671924 1.00611e-22)
(-0.213111 0.000713747 0)
(-0.210305 0.000755134 0)
(-0.20556 0.000798225 0)
(-0.198321 0.000839237 -5.85158e-23)
(-0.187912 0.000876386 3.66126e-24)
(-0.173356 0.000903933 4.5941e-23)
(-0.153901 0.0009178 0)
(-0.128802 0.000913284 0)
(-0.0975378 0.000886353 0)
(-0.0598683 0.000834201 0)
(-0.0161429 0.000758057 0)
(0.0328334 0.000661702 0)
(0.0859641 0.000551635 0)
(0.1409 0.000435307 3.34355e-24)
(0.194821 0.000322233 -3.06092e-24)
(0.245539 0.000222412 0)
(0.291497 0.000141748 0)
(0.331904 8.25345e-05 -3.42179e-25)
(0.366807 4.45435e-05 7.71414e-25)
(0.396862 2.30875e-05 -8.69497e-25)
(0.422839 1.36556e-05 4.11919e-25)
(0.44539 1.26752e-05 0)
(0.465151 1.69224e-05 0)
(0.48248 2.3622e-05 0)
(0.498024 3.04134e-05 0)
(0.512093 3.64292e-05 3.88584e-26)
(0.524534 4.15629e-05 -3.55554e-26)
(0.535621 4.59361e-05 2.07856e-27)
(0.544821 4.93182e-05 -1.90184e-27)
(0.55367 5.23148e-05 0)
(0.560603 5.43973e-05 0)
(0.568538 5.67932e-05 0)
(0.5741 5.83219e-05 -6.99764e-28)
(0.579672 5.99032e-05 7.57673e-28)
(0.588697 6.28762e-05 -1.07437e-28)
(2.09334 -5.83246e-05 0)
(2.14647 -0.000130786 2.24339e-25)
(2.12947 -0.000117294 -2.3018e-25)
(2.11072 -0.00010632 9.44514e-25)
(2.09255 -9.62233e-05 -1.01468e-24)
(2.07249 -8.55502e-05 0)
(2.04636 -7.21216e-05 -2.71532e-24)
(2.00818 -5.45517e-05 -3.52943e-25)
(1.9511 -3.01557e-05 3.97284e-24)
(1.86816 1.56988e-06 0)
(1.75285 3.87312e-05 0)
(1.60116 7.68644e-05 0)
(1.40927 0.000111518 0)
(1.17582 0.000140212 0)
(0.901108 0.000168935 0)
(0.573304 0.000183477 -7.57104e-24)
(0.287439 0.00026132 -1.36896e-21)
(-0.200935 0.000225541 0)
(-0.170501 -0.0315692 1.85586e-17)
(0.463992 0.18185 3.62094e-17)
(1.13252 0.631359 6.57415e-17)
(2.00103 1.26989 -9.73269e-17)
(2.93185 1.80956 -1.19125e-23)
(3.64884 1.90375 -1.01867e-17)
(3.87621 1.69546 -1.19313e-21)
(4.13488 1.60739 7.43275e-23)
(4.43996 1.50981 -4.71041e-23)
(4.51249 1.30667 3.49645e-17)
(4.45776 1.10877 -1.05682e-21)
(4.4012 0.954374 4.02144e-17)
(4.35477 0.833481 -4.22172e-17)
(4.31647 0.733826 5.3896e-22)
(4.29404 0.651972 1.77162e-22)
(4.28505 0.57698 -2.44743e-17)
(4.265 0.502623 -9.98552e-23)
(4.23706 0.430259 1.02687e-22)
(4.2029 0.360626 9.36209e-23)
(4.16658 0.294048 -1.51624e-17)
(4.122 0.229261 -8.00569e-18)
(4.07425 0.166983 8.45314e-18)
(4.00785 0.104649 -1.36342e-22)
(3.94073 0.0486517 2.35446e-18)
(3.87463 -0.00549181 0)
(3.79899 -0.0569152 -1.60127e-22)
(3.72073 -0.105437 3.39715e-22)
(3.62767 -0.153144 -1.80691e-22)
(3.53286 -0.195907 6.22453e-18)
(3.41674 -0.24021 -9.94407e-23)
(3.26045 -0.277666 6.93739e-18)
(3.10112 -0.30869 7.27372e-18)
(2.93098 -0.334094 2.91376e-22)
(2.74307 -0.352811 5.93852e-23)
(2.51298 -0.364669 -6.44787e-23)
(2.18958 -0.358421 8.54597e-18)
(1.81087 -0.328469 1.73859e-17)
(1.45729 -0.287884 -8.75476e-18)
(1.00908 -0.225518 -8.83824e-18)
(0.319701 -0.083731 8.75301e-24)
(-0.314072 0.105399 0)
(-0.50134 0.203189 8.6457e-22)
(-0.372684 0.184754 -7.15934e-18)
(-0.280453 0.166863 6.8907e-18)
(-0.226884 0.152589 0)
(-0.183817 0.134856 -6.53991e-18)
(-0.155309 0.121407 1.28662e-17)
(-0.131232 0.107166 6.37022e-18)
(-0.11401 0.0955467 6.34568e-18)
(-0.100615 0.0854657 9.70373e-23)
(-0.0910077 0.0778792 -6.37173e-18)
(-0.082887 0.0704889 0)
(-0.0779586 0.0652179 9.90498e-23)
(-0.0765543 0.0633623 6.55505e-18)
(-0.0758805 0.0625302 -1.00704e-22)
(-0.0743402 0.0607577 1.0161e-22)
(-0.0728654 0.0586068 -1.34502e-17)
(-0.0717281 0.0562934 -6.8087e-18)
(-0.0719052 0.0547854 -1.37995e-17)
(-0.0735309 0.0544495 0)
(-0.0758466 0.0546246 -7.06831e-18)
(-0.0780971 0.0547312 0)
(-0.0801673 0.0544031 0)
(-0.082508 0.0540527 0)
(-0.0851519 0.0536994 -7.39816e-18)
(-0.088242 0.0534671 -4.56608e-22)
(-0.0914991 0.0531656 2.30742e-22)
(-0.0951304 0.0528942 2.20058e-24)
(-0.0987694 0.0524778 7.71237e-18)
(-0.102753 0.0520258 -7.78365e-18)
(-0.106691 0.051431 7.84946e-18)
(-0.110771 0.0506483 7.91268e-18)
(-0.115586 0.050111 2.47914e-22)
(-0.120641 0.049534 -2.44803e-22)
(-0.126394 0.049129 0)
(-0.132956 0.0489658 0)
(-0.139551 0.0487339 -2.48789e-22)
(-0.146071 0.0482758 2.497e-22)
(-0.15319 0.0478878 0)
(-0.160702 0.0475316 0)
(-0.169435 0.0474809 0)
(-0.17809 0.0474448 -1.09312e-24)
(-0.186403 0.0471102 -4.14762e-18)
(-0.195136 0.0468266 4.15374e-18)
(-0.204034 0.0464849 4.15977e-18)
(-0.213684 0.0463085 -2.54073e-22)
(-0.223893 0.0462831 0)
(-0.234383 0.0463586 0)
(-0.244884 0.0464394 -4.17033e-18)
(-0.254991 0.046421 -4.17017e-18)
(-0.264892 0.0462671 -4.17026e-18)
(-0.274986 0.046122 2.54467e-22)
(-0.285156 0.0459604 -2.28121e-24)
(-0.2958 0.0458833 2.54097e-22)
(-0.306732 0.0459097 -5.07904e-22)
(-0.317535 0.045922 -4.15654e-18)
(-0.328138 0.0458708 4.15185e-18)
(-0.337966 0.0456142 0)
(-0.347115 0.0450375 -4.13841e-18)
(-0.35616 0.044274 -2.06524e-18)
(-0.36559 0.0434449 -2.06098e-18)
(-0.374353 0.0424673 -2.05583e-18)
(-0.381621 0.0409569 2.50423e-22)
(-0.387404 0.0388636 0)
(-0.392822 0.0362401 0)
(-0.397616 0.0332922 -2.02728e-18)
(-0.401846 0.0298172 -2.01837e-18)
(-0.405661 0.0260645 0)
(-0.409652 0.0219529 -9.99216e-19)
(-0.414549 0.017915 0)
(-0.420129 0.0138619 -4.82252e-22)
(-0.426905 0.0100687 4.91526e-19)
(-0.436495 0.0066779 4.77853e-22)
(-0.452914 0.0045822 4.74811e-22)
(-0.47257 0.00422887 -9.46917e-22)
(-0.487495 0.00457265 2.41492e-19)
(-0.49851 0.00460746 2.40401e-19)
(-0.511623 0.00489989 -4.78605e-19)
(-0.526832 0.00623396 2.38262e-19)
(-0.527037 0.00683939 4.63778e-22)
(-0.516398 0.00334508 0)
(-0.524695 6.45077e-05 0)
(-0.540475 6.53018e-05 4.48402e-22)
(-0.549109 5.0272e-05 -4.41448e-22)
(-0.557792 4.68067e-05 0)
(-0.565195 4.39027e-05 0)
(-0.572519 4.25342e-05 0)
(-0.579489 4.13525e-05 0)
(-0.586376 4.04816e-05 3.53747e-22)
(-0.593109 3.96675e-05 -3.35059e-22)
(-0.599748 3.88147e-05 0)
(-0.606136 3.78497e-05 2.87817e-22)
(-0.612352 3.67964e-05 -2.69224e-22)
(-0.617949 3.51354e-05 -2.44353e-22)
(-0.623051 3.4319e-05 4.50786e-22)
(-0.628035 3.12988e-05 4.07623e-22)
(-0.63301 2.84461e-05 -1.68791e-21)
(-0.636769 2.51643e-05 0)
(-0.638125 2.14936e-05 -1.50975e-22)
(-0.634755 1.7086e-05 6.88764e-22)
(-0.625724 1.33093e-05 0)
(-0.610806 6.40567e-06 -1.04426e-22)
(-0.58836 -1.63708e-06 5.46624e-24)
(-0.556357 -1.15568e-05 8.30779e-23)
(-0.511917 -2.29185e-05 0)
(-0.45282 -3.50858e-05 0)
(-0.376867 -4.73414e-05 0)
(-0.28254 -5.88728e-05 0)
(-0.169148 -6.84827e-05 0)
(-0.0377367 -7.5069e-05 0)
(0.109302 -7.79689e-05 0)
(0.268728 -7.57904e-05 0)
(0.433516 -6.74142e-05 4.76236e-32)
(0.595247 -5.4169e-05 0)
(0.747435 -3.84804e-05 0)
(0.885451 -2.25412e-05 0)
(1.00694 -8.01978e-06 0)
(1.11205 4.29054e-06 0)
(1.2027 1.4247e-05 0)
(1.28118 2.25729e-05 -5.84454e-25)
(1.34941 2.88273e-05 9.74328e-25)
(1.40927 3.31699e-05 -4.02171e-25)
(1.46181 3.5845e-05 0)
(1.50895 3.69708e-05 0)
(1.55162 3.69825e-05 0)
(1.58935 3.60761e-05 1.28154e-26)
(1.62297 3.46294e-05 -1.17259e-26)
(1.65087 3.2677e-05 0)
(1.67769 3.0256e-05 -1.98534e-27)
(1.6987 2.7808e-05 2.91566e-27)
(1.72274 2.45175e-05 -1.00567e-27)
(1.73957 2.24008e-05 0)
(1.75649 1.84983e-05 1.82125e-28)
(1.78385 1.41401e-05 -1.66632e-28)
(3.55457 -0.00170181 -6.13832e-26)
(3.64463 -0.00203053 6.14388e-26)
(3.6159 -0.00196488 4.75779e-25)
(3.58415 -0.0019047 -4.99851e-25)
(3.55339 -0.00184606 0)
(3.51954 -0.00178268 0)
(3.47555 -0.00170177 0)
(3.41142 -0.00158836 0)
(3.31564 -0.00142438 0)
(3.1766 -0.00119721 0)
(2.98333 -0.00090322 -2.06377e-23)
(2.7291 -0.000555708 -6.18732e-24)
(2.40738 -0.000177666 3.71414e-23)
(2.01594 0.000187251 3.38512e-23)
(1.55427 0.000518779 -4.12565e-23)
(1.00339 0.000723697 6.92623e-23)
(0.513013 0.00101707 1.36002e-21)
(-0.310598 0.000792638 -1.23862e-22)
(-0.261543 -0.0489086 -3.91755e-17)
(0.783394 0.305884 -3.81753e-17)
(1.88133 1.04721 -2.45735e-21)
(3.30282 2.09349 6.05486e-21)
(4.83475 2.98068 2.3594e-17)
(6.05155 3.15397 1.06152e-17)
(6.48456 2.83302 3.1444e-17)
(6.931 2.69115 -8.64822e-17)
(7.4435 2.52867 -5.95479e-17)
(7.5921 2.19622 0)
(7.52221 1.86851 -3.90628e-17)
(7.43536 1.60943 -8.27691e-17)
(7.36128 1.4057 8.46413e-23)
(7.29933 1.23746 9.12741e-17)
(7.26221 1.09897 -2.39296e-17)
(7.24731 0.972066 5.595e-21)
(7.21553 0.846455 -2.66795e-17)
(7.17078 0.724182 1.08556e-22)
(7.11524 0.606431 1.48559e-17)
(7.05577 0.493778 1.56793e-17)
(6.98257 0.384118 8.28427e-18)
(6.90394 0.278659 -1.75024e-17)
(6.79515 0.173083 -4.62863e-18)
(6.68429 0.0781347 -2.44028e-18)
(6.57409 -0.0137018 -1.61393e-19)
(6.44923 -0.10096 0)
(6.31915 -0.183335 2.89027e-18)
(6.1658 -0.264466 0)
(6.00839 -0.337223 -5.46651e-22)
(5.81711 -0.412806 6.85742e-18)
(5.56195 -0.477269 -1.4438e-17)
(5.29887 -0.530806 0)
(5.01767 -0.574976 -7.94003e-18)
(4.70732 -0.608047 1.28901e-22)
(4.32929 -0.630201 0)
(3.80142 -0.623391 -6.57525e-23)
(3.18065 -0.577303 -9.09428e-18)
(2.58893 -0.510887 1.83419e-17)
(1.8396 -0.409028 9.27237e-18)
(0.683324 -0.176199 9.20186e-24)
(-0.420346 0.144577 8.60216e-18)
(-0.793593 0.322224 -7.94914e-18)
(-0.611167 0.302458 1.15793e-22)
(-0.466197 0.276974 -7.27246e-18)
(-0.378644 0.254368 -9.19042e-25)
(-0.307658 0.225489 6.90466e-18)
(-0.260358 0.203356 -6.79273e-18)
(-0.22044 0.179876 -6.72683e-18)
(-0.191781 0.160618 -6.70143e-18)
(-0.169467 0.14387 1.02478e-22)
(-0.15341 0.131216 6.72911e-18)
(-0.139914 0.118937 1.42373e-25)
(-0.131769 0.11021 1.03039e-25)
(-0.129434 0.107123 9.09459e-26)
(-0.128306 0.105725 6.97321e-18)
(-0.125769 0.102778 -7.03032e-18)
(-0.123358 0.0992074 1.42054e-17)
(-0.121548 0.0953874 2.19412e-22)
(-0.121943 0.0929148 1.45735e-17)
(-0.124745 0.0923862 7.37824e-18)
(-0.128691 0.0926983 0)
(-0.132535 0.0928953 0)
(-0.136101 0.0923743 0)
(-0.140128 0.091816 7.72396e-18)
(-0.144675 0.0912537 7.8131e-18)
(-0.149968 0.0908868 0)
(-0.155556 0.0904063 0)
(-0.161767 0.0899669 1.6133e-17)
(-0.168012 0.0892897 -8.14395e-18)
(-0.174831 0.0885427 8.21909e-18)
(-0.181592 0.0875601 2.5298e-22)
(-0.18862 0.0862684 8.35479e-18)
(-0.196862 0.0853757 1.68323e-17)
(-0.205531 0.0844204 0)
(-0.215368 0.0837491 -2.60125e-22)
(-0.226528 0.0834662 5.22849e-22)
(-0.237752 0.0830659 -2.62563e-22)
(-0.24888 0.0822939 0)
(-0.261 0.081633 0)
(-0.273804 0.0810323 0)
(-0.288579 0.0809208 0)
(-0.303223 0.0808319 -1.09269e-24)
(-0.317331 0.0802507 0)
(-0.332123 0.0797517 4.38505e-18)
(-0.347212 0.0791601 -8.78097e-18)
(-0.363531 0.0788419 -4.39471e-18)
(-0.380759 0.0787725 4.3979e-18)
(-0.398435 0.0788692 0)
(-0.416106 0.0789711 4.40159e-18)
(-0.43313 0.0789105 -2.68656e-22)
(-0.449822 0.0786267 4.40098e-18)
(-0.466821 0.0783572 4.39954e-18)
(-0.483953 0.0780631 -4.39706e-18)
(-0.501847 0.0779077 -4.3947e-18)
(-0.520184 0.077921 0)
(-0.538291 0.0779095 4.528e-24)
(-0.556028 0.0777857 5.34514e-22)
(-0.572481 0.0773187 -4.37497e-18)
(-0.587833 0.0763197 4.36627e-18)
(-0.603019 0.0750102 2.18008e-18)
(-0.618768 0.0735788 2.17421e-18)
(-0.633369 0.07189 4.54295e-24)
(-0.645511 0.0693074 2.16198e-18)
(-0.655266 0.0657568 2.15534e-18)
(-0.664405 0.0613129 0)
(-0.672531 0.0563235 0)
(-0.679749 0.050447 5.26812e-22)
(-0.686336 0.044106 -9.48569e-25)
(-0.693255 0.037162 -1.05413e-18)
(-0.701668 0.0303388 -1.02395e-21)
(-0.71124 0.0234888 5.09589e-22)
(-0.72286 0.0170838 -5.18506e-19)
(-0.739243 0.0113748 5.15761e-19)
(-0.766576 0.0078506 5.00817e-22)
(-0.798865 0.0072376 -5.00036e-22)
(-0.823413 0.00778474 2.55191e-19)
(-0.841784 0.00783477 -1.71311e-24)
(-0.863503 0.00833404 2.52368e-19)
(-0.887813 0.0105259 -4.95245e-22)
(-0.888009 0.011464 0)
(-0.8718 0.00561438 4.83074e-22)
(-0.88579 0.000154231 -4.80757e-22)
(-0.911483 0.000153697 0)
(-0.925737 0.000105567 4.63142e-22)
(-0.940036 9.24998e-05 -4.52553e-22)
(-0.952266 8.04345e-05 4.33969e-22)
(-0.964342 7.30569e-05 -2.7579e-24)
(-0.97583 6.5912e-05 -7.92816e-22)
(-0.987158 5.95117e-05 3.76077e-22)
(-0.998212 5.29875e-05 0)
(-1.00908 4.59526e-05 0)
(-1.0195 3.8396e-05 0)
(-1.02957 2.97618e-05 0)
(-1.03858 1.95162e-05 0)
(-1.04671 1.06727e-05 -1.18914e-22)
(-1.05453 -5.18113e-06 -8.68352e-22)
(-1.06225 -2.16836e-05 1.58111e-21)
(-1.06783 -3.99756e-05 0)
(-1.06926 -6.054e-05 -2.58815e-21)
(-1.06273 -8.23952e-05 -5.794e-22)
(-1.04664 -0.000102566 0)
(-1.02053 -0.00013137 0)
(-0.98167 -0.000163067 0)
(-0.926647 -0.000198721 0)
(-0.850681 -0.000236064 0)
(-0.750077 -0.000272255 0)
(-0.621193 -0.000304707 0)
(-0.461524 -0.000330856 0)
(-0.269957 -0.000347814 0)
(-0.0482491 -0.00035379 0)
(0.199605 -0.00034891 0)
(0.468214 -0.00033203 0)
(0.745775 -0.000303282 0)
(1.01817 -0.000269213 -5.56677e-24)
(1.27457 -0.000238763 5.09525e-24)
(1.50725 -0.000218333 0)
(1.71226 -0.000211662 0)
(1.88986 -0.000220362 0)
(2.04325 -0.000243494 0)
(2.17619 -0.000278425 0)
(2.2919 -0.000322882 0)
(2.39353 -0.000376194 0)
(2.48279 -0.000434553 0)
(2.56289 -0.00049562 -1.20401e-25)
(2.63538 -0.000557144 1.10151e-25)
(2.69947 -0.000616306 0)
(2.75657 -0.000672613 0)
(2.80395 -0.000722255 -1.03642e-27)
(2.8495 -0.000772845 9.48182e-28)
(2.88516 -0.000813935 0)
(2.92596 -0.000863681 0)
(2.95447 -0.000896964 2.29581e-27)
(2.98324 -0.000937294 -2.10037e-27)
(3.0297 -0.000996884 0)
(5.10372 -0.0037182 1.29556e-25)
(5.23136 -0.00391036 -1.29349e-25)
(5.19048 -0.00385144 0)
(5.14534 -0.00381329 0)
(5.10164 -0.00377321 0)
(5.05364 -0.00372683 0)
(4.99141 -0.00366321 3.01017e-24)
(4.90085 -0.00355261 -3.42697e-24)
(4.76571 -0.00337773 0)
(4.56954 -0.00310908 0)
(4.29672 -0.00271212 2.18977e-23)
(3.93754 -0.00215968 -2.62309e-23)
(3.48239 -0.00143245 -4.90342e-23)
(2.9279 -0.000569257 1.32114e-22)
(2.27178 0.000397554 1.6265e-23)
(1.48817 0.00113819 -1.28751e-22)
(0.775478 0.00204084 -3.11926e-21)
(-0.401607 0.00147074 -1.33885e-22)
(-0.334738 -0.0635664 2.11466e-17)
(1.12144 0.436082 4.10593e-17)
(2.64647 1.47017 -1.48209e-16)
(4.60958 2.91795 5.41643e-17)
(6.72912 4.14739 -4.94862e-17)
(8.45166 4.41063 -1.09214e-17)
(9.11748 3.99431 -1.13924e-22)
(9.74947 3.80024 4.34665e-17)
(10.4598 3.57139 5.93989e-17)
(10.6984 3.1146 -1.2345e-22)
(10.6303 2.66005 -1.52188e-22)
(10.5232 2.29614 4.10273e-17)
(10.4288 2.00862 4.31517e-17)
(10.3491 1.77058 -3.60708e-20)
(10.3012 1.5741 2.386e-17)
(10.2834 1.39392 5.04219e-17)
(10.244 1.21576 2.66753e-17)
(10.1866 1.04219 -2.8166e-17)
(10.1137 0.874754 2.27019e-22)
(10.0348 0.714355 -9.62254e-21)
(9.93684 0.558009 0)
(9.83102 0.407468 4.92444e-21)
(9.68454 0.256512 4.66938e-18)
(9.53372 0.120447 0)
(9.38239 -0.0113375 1.63384e-19)
(9.21198 -0.136689 -2.769e-18)
(9.03312 -0.255259 -2.93638e-18)
(8.82345 -0.372366 1.88809e-22)
(8.60645 -0.477656 -1.3191e-17)
(8.34434 -0.587483 -1.40126e-17)
(7.99691 -0.682383 1.47857e-17)
(7.63437 -0.761796 -3.60825e-24)
(7.24593 -0.828167 -1.26665e-22)
(6.81699 -0.879135 0)
(6.29656 -0.915713 8.95131e-18)
(5.57347 -0.913656 2.1377e-22)
(4.71825 -0.856523 -1.09732e-22)
(3.88493 -0.766636 -1.92585e-17)
(2.82861 -0.627608 -9.7966e-18)
(1.18969 -0.304918 -1.96196e-23)
(-0.436704 0.156386 -9.24437e-18)
(-1.05658 0.429767 -8.58332e-18)
(-0.847661 0.418578 0)
(-0.656303 0.389192 0)
(-0.535349 0.359091 0)
(-0.436321 0.31936 -7.46508e-18)
(-0.369869 0.288557 0)
(-0.313825 0.255805 7.2746e-18)
(-0.27343 0.22879 7.24742e-18)
(-0.241941 0.205235 0)
(-0.219201 0.18736 -1.45566e-17)
(-0.200202 0.17009 -1.54201e-25)
(-0.188803 0.157861 -1.13265e-22)
(-0.185515 0.153513 -7.48899e-18)
(-0.183918 0.151524 -7.54237e-18)
(-0.18038 0.147377 7.60446e-18)
(-0.177045 0.142358 -1.5366e-17)
(-0.174619 0.137021 7.77845e-18)
(-0.175327 0.133593 2.48657e-22)
(-0.179421 0.132895 -7.98065e-18)
(-0.185123 0.133367 8.07421e-18)
(-0.190688 0.133674 0)
(-0.195898 0.132978 0)
(-0.201773 0.132229 -1.67081e-17)
(-0.208402 0.131476 -8.45029e-18)
(-0.21609 0.130989 0)
(-0.224219 0.130344 2.6355e-22)
(-0.233228 0.129744 -8.72414e-18)
(-0.242314 0.128813 0)
(-0.25221 0.127768 2.71275e-22)
(-0.262054 0.126395 -5.47081e-22)
(-0.272319 0.124591 -9.03489e-18)
(-0.284283 0.123335 -9.10081e-18)
(-0.296888 0.121995 9.16069e-18)
(-0.311149 0.121053 9.21405e-18)
(-0.327241 0.120636 2.82595e-22)
(-0.343434 0.12005 0)
(-0.35954 0.118947 0)
(-0.377032 0.117992 0)
(-0.395531 0.117133 2.87041e-22)
(-0.416721 0.116934 -9.42801e-18)
(-0.437725 0.116765 -9.44821e-18)
(-0.45802 0.115908 -4.73233e-18)
(-0.479259 0.115163 -2.89775e-22)
(-0.500946 0.114294 4.36277e-25)
(-0.524336 0.113808 4.74946e-18)
(-0.548976 0.113668 -9.50527e-18)
(-0.574216 0.11376 4.75412e-18)
(-0.599416 0.113855 1.16105e-21)
(-0.623717 0.113724 -5.80557e-22)
(-0.647565 0.113282 5.80378e-22)
(-0.671823 0.11286 -4.75369e-18)
(-0.696281 0.112407 5.79778e-22)
(-0.721767 0.112147 4.74644e-18)
(-0.747825 0.112119 -5.7876e-22)
(-0.773535 0.112055 4.73768e-18)
(-0.798669 0.111823 5.77827e-22)
(-0.822006 0.111105 4.72434e-18)
(-0.84383 0.109638 0)
(-0.865428 0.107734 0)
(-0.887703 0.105639 2.34716e-18)
(-0.90831 0.103167 4.684e-18)
(-0.925494 0.0994242 -4.66984e-18)
(-0.939438 0.0943197 -6.66211e-24)
(-0.9525 0.0879396 0)
(-0.964176 0.0807826 0)
(-0.974618 0.07236 2.29884e-18)
(-0.984257 0.0632793 0)
(-0.994424 0.0533388 5.59144e-22)
(-1.00668 0.0435663 1.13129e-18)
(-1.02059 0.0337543 1.12508e-18)
(-1.03748 0.0245882 5.60765e-19)
(-1.06119 0.0164405 -1.08948e-21)
(-1.09969 0.0114191 5.41514e-22)
(-1.14456 0.0105233 5.3811e-22)
(-1.17873 0.0112629 -2.75346e-19)
(-1.20467 0.0113236 -5.33303e-22)
(-1.23507 0.0120456 5.3268e-22)
(-1.26787 0.0151022 -3.93333e-24)
(-1.26801 0.0163293 2.69357e-19)
(-1.24735 0.00802105 0)
(-1.26728 0.000321064 0)
(-1.30265 0.00032447 0)
(-1.32256 0.000225575 4.99501e-22)
(-1.34248 0.000199509 -2.72324e-24)
(-1.35958 0.000174164 -4.70869e-22)
(-1.37641 0.000158788 4.48043e-22)
(-1.39243 0.000143499 -4.29073e-22)
(-1.40818 0.000129794 0)
(-1.42352 0.000115664 0)
(-1.43854 0.000100451 7.05322e-22)
(-1.4529 8.41022e-05 -6.62233e-22)
(-1.46668 6.54091e-05 0)
(-1.4789 4.37156e-05 0)
(-1.48979 2.44316e-05 -3.80475e-22)
(-1.50009 -9.30507e-06 9.36365e-22)
(-1.5101 -4.5562e-05 -4.30844e-22)
(-1.51692 -8.5823e-05 3.81612e-22)
(-1.51766 -0.000130373 5.22764e-21)
(-1.50702 -0.000175378 1.24926e-21)
(-1.48273 -0.000214534 6.92857e-23)
(-1.44397 -0.000267909 0)
(-1.38693 -0.000324799 0)
(-1.30671 -0.000386207 -1.76032e-22)
(-1.19662 -0.000448026 1.31908e-23)
(-1.05145 -0.000505584 1.36029e-22)
(-0.866086 -0.000556371 9.92898e-23)
(-0.63705 -0.000598854 -1.69203e-22)
(-0.362822 -0.000631512 1.31283e-22)
(-0.0459049 -0.000654966 -5.46153e-23)
(0.308046 -0.000674841 0)
(0.691432 -0.000696247 1.97863e-23)
(1.08745 -0.000724092 -1.81078e-23)
(1.47603 -0.000765311 5.98442e-24)
(1.8419 -0.000823919 -5.47562e-24)
(2.17409 -0.000898229 0)
(2.46701 -0.000987378 -1.19924e-24)
(2.72104 -0.00109363 2.70103e-24)
(2.94066 -0.00121649 -1.46695e-24)
(3.13116 -0.0013603 0)
(3.2971 -0.00151001 0)
(3.44292 -0.00166351 0)
(3.57102 -0.00181389 0)
(3.68596 -0.0019585 -1.28757e-25)
(3.78992 -0.00209386 1.17702e-25)
(3.88179 -0.00221564 0)
(3.96362 -0.00232501 0)
(4.03148 -0.00241666 -9.88351e-28)
(4.09669 -0.00250626 9.03689e-28)
(4.14772 -0.00257618 0)
(4.20609 -0.00265814 1.30458e-27)
(4.24681 -0.00271022 -1.19313e-27)
(4.28802 -0.002774 4.03361e-28)
(4.35447 -0.00286225 -3.6877e-28)
(6.72939 -4.58598e-05 0)
(6.8904 0.000547472 -5.07177e-25)
(6.83759 0.000434128 5.20992e-25)
(6.77976 0.000286863 2.14103e-24)
(6.7238 0.000148067 -2.3038e-24)
(6.66241 5.76851e-06 0)
(6.58294 -0.000163497 6.18502e-24)
(6.46737 -0.000323343 8.0338e-25)
(6.29487 -0.000525923 1.56583e-24)
(6.04416 -0.000772402 2.76465e-24)
(5.6947 -0.00103178 -1.82682e-23)
(5.23323 -0.00122393 3.43428e-23)
(4.64602 -0.0012259 -4.18241e-23)
(3.92743 -0.000815063 0)
(3.07139 0.000190187 0)
(2.04451 0.00142005 -1.62071e-22)
(1.08704 0.00346945 3.40022e-21)
(-0.470002 0.00255678 -8.59731e-21)
(-0.385943 -0.0747858 3.55018e-22)
(1.4862 0.575278 -4.44681e-17)
(3.43522 1.90487 7.9112e-17)
(5.91314 3.74218 5.64385e-17)
(8.58066 5.295 2.53129e-17)
(10.7785 5.63531 2.1723e-17)
(11.6695 5.1244 7.15724e-23)
(12.4535 4.86627 -6.71792e-23)
(13.3269 4.56148 0)
(13.6512 3.98585 -1.3312e-22)
(13.5937 3.41459 -3.58725e-17)
(13.4767 2.95478 -1.48709e-22)
(13.3724 2.59066 -5.75225e-20)
(13.2847 2.28859 -5.79649e-20)
(13.2335 2.03843 1.67128e-22)
(13.2184 1.80838 -2.35968e-17)
(13.1784 1.58102 1.87778e-22)
(13.1158 1.35927 3.0917e-20)
(13.0332 1.14506 -1.39879e-17)
(12.9425 0.939509 -1.48292e-17)
(12.8285 0.7389 -2.41004e-22)
(12.7041 0.545405 8.33616e-18)
(12.5306 0.351109 0)
(12.3496 0.175538 -1.4294e-22)
(12.1667 0.00482029 1.51979e-22)
(11.9609 -0.158299 2.64624e-18)
(11.7434 -0.313068 1.72206e-22)
(11.4887 -0.466513 5.98382e-18)
(11.2228 -0.605052 1.27056e-17)
(10.9029 -0.750339 5.92782e-21)
(10.4796 -0.877671 -7.17344e-18)
(10.0323 -0.985462 -7.56716e-18)
(9.55132 -1.07712 7.98743e-18)
(9.01924 -1.14975 1.25649e-22)
(8.37496 -1.20576 -8.84796e-18)
(7.48193 -1.21576 0)
(6.41594 -1.1558 9.52809e-18)
(5.35281 -1.04937 9.76116e-18)
(3.99892 -0.881667 -1.83065e-23)
(1.87175 -0.477382 -5.43026e-23)
(-0.339005 0.133866 -1.00178e-17)
(-1.28475 0.524469 9.42666e-18)
(-1.08409 0.534304 0)
(-0.854011 0.505502 -1.3139e-22)
(-0.700077 0.468856 1.28945e-22)
(-0.572532 0.418484 8.23347e-18)
(-0.486263 0.378915 0)
(-0.413551 0.336732 1.35648e-22)
(-0.360911 0.301709 2.4381e-22)
(-0.319819 0.271081 -2.44689e-22)
(-0.290031 0.247729 -3.14207e-22)
(-0.265306 0.225273 8.09847e-18)
(-0.250571 0.209438 -2.49845e-22)
(-0.246293 0.203776 8.26809e-18)
(-0.244201 0.201159 0)
(-0.239646 0.195762 8.39555e-18)
(-0.235395 0.189243 8.48182e-18)
(-0.232417 0.182356 2.77578e-22)
(-0.233561 0.177973 -8.70181e-18)
(-0.23911 0.177132 -8.81004e-18)
(-0.246746 0.177792 -1.78267e-17)
(-0.254218 0.178237 0)
(-0.261276 0.177386 0)
(-0.269223 0.176465 9.22153e-18)
(-0.278188 0.175541 9.32714e-18)
(-0.288541 0.17495 2.87806e-22)
(-0.299504 0.174156 -2.90883e-22)
(-0.311618 0.173401 9.62882e-18)
(-0.323877 0.172223 -2.9662e-22)
(-0.337192 0.170873 0)
(-0.350483 0.1691 -9.89097e-18)
(-0.364384 0.166772 0)
(-0.380485 0.165138 -1.00415e-17)
(-0.397479 0.163403 -1.01063e-17)
(-0.416641 0.162178 -1.01657e-17)
(-0.438143 0.161608 -1.02183e-17)
(-0.459795 0.160813 0)
(-0.481395 0.159352 0)
(-0.504792 0.158072 0)
(-0.529557 0.156931 0)
(-0.557705 0.156609 1.03963e-17)
(-0.585607 0.156324 6.36435e-25)
(-0.612652 0.155151 5.21777e-18)
(-0.640898 0.15412 -5.22488e-18)
(-0.669769 0.152934 5.22989e-18)
(-0.700814 0.152241 5.23595e-18)
(-0.733439 0.151996 5.23692e-18)
(-0.766804 0.15205 -8.98021e-26)
(-0.800067 0.152099 -5.23984e-18)
(-0.832176 0.15186 -6.39525e-22)
(-0.863716 0.151221 -5.23701e-18)
(-0.895758 0.150605 0)
(-0.928073 0.149957 0)
(-0.961662 0.149554 -6.37879e-22)
(-0.995919 0.149447 6.37554e-22)
(-1.02969 0.149289 0)
(-1.06263 0.148898 0)
(-1.09325 0.147873 5.19909e-18)
(-1.12195 0.145873 0)
(-1.15036 0.143301 0)
(-1.17948 0.140453 -5.16522e-18)
(-1.20637 0.137094 -2.57631e-18)
(-1.22886 0.132066 6.35108e-22)
(-1.24731 0.125266 -8.02565e-24)
(-1.26458 0.116779 6.21808e-22)
(-1.28012 0.107269 -6.2041e-22)
(-1.29411 0.0960874 0)
(-1.30718 0.0840434 2.51472e-18)
(-1.32102 0.0708641 2.50158e-18)
(-1.33754 0.0579003 -1.24391e-18)
(-1.35629 0.0448826 -1.23694e-18)
(-1.37903 0.0327335 -6.14916e-19)
(-1.41073 0.0219617 -3.00164e-24)
(-1.4608 0.0153278 0)
(-1.51833 0.0141037 0)
(-1.56222 0.0150167 5.88138e-22)
(-1.59602 0.0150763 -5.87271e-22)
(-1.63524 0.0160301 0)
(-1.6759 0.0199581 -5.95768e-19)
(-1.67602 0.0214307 -2.93098e-19)
(-1.65213 0.0105162 -1.14741e-21)
(-1.6783 0.000462407 -1.13285e-21)
(-1.72318 0.00046063 2.2415e-21)
(-1.74881 0.00028378 -1.1006e-21)
(-1.7744 0.000232546 0)
(-1.79642 0.000182023 0)
(-1.81805 0.000148874 0)
(-1.83862 0.000115587 9.3329e-22)
(-1.85878 8.50182e-05 -8.88559e-22)
(-1.87837 5.35246e-05 8.2749e-22)
(-1.89746 2.01256e-05 -7.80071e-22)
(-1.91563 -1.52412e-05 0)
(-1.93291 -5.46402e-05 -6.62249e-22)
(-1.94808 -9.85202e-05 6.17401e-22)
(-1.96136 -0.000138166 0)
(-1.97364 -0.00020258 -5.07276e-22)
(-1.98528 -0.000271701 3.7386e-21)
(-1.99251 -0.000345892 8.44661e-22)
(-1.99147 -0.000423711 -3.43359e-21)
(-1.97541 -0.000495988 -1.02835e-21)
(-1.94128 -0.000552241 -4.59319e-22)
(-1.88785 -0.000626568 2.58781e-22)
(-1.81014 -0.000700697 -2.3755e-22)
(-1.70171 -0.000776654 0)
(-1.55388 -0.000849754 0)
(-1.3599 -0.00091626 0)
(-1.11317 -0.000977642 -1.07704e-22)
(-0.809238 -0.00103684 9.86232e-23)
(-0.446211 -0.00109529 6.45747e-23)
(-0.0273952 -0.00115748 -5.90992e-23)
(0.439808 -0.00123958 0)
(0.945477 -0.00135746 0)
(1.46748 -0.0015124 -1.26491e-23)