/*--------------------------------*- C++ -*----------------------------------*\
| =========                 |                                                 |
| \\      /  F ield         | OpenFOAM: The Open Source CFD Toolbox           |
|  \\    /   O peration     | Version:  2212                                  |
|   \\  /    A nd           | Website:  www.openfoam.com                      |
|    \\/     M anipulation  |                                                 |
\*---------------------------------------------------------------------------*/
FoamFile
{
    version     2.0;
    format      ascii;
    arch        "LSB;label=32;scalar=64";
    class       volScalarField;
    location    "0";
    object      V;
}
// * * * * * * * * * * * * * * * * * * * * * * * * * * * * * * * * * * * * * //

dimensions      [0 3 0 0 0 0 0];

internalField   nonuniform List<scalar> 
10368
(
2.12046e-07
2.11718e-07
2.06347e-07
1.96434e-07
1.82851e-07
1.66689e-07
1.49086e-07
1.31087e-07
1.13542e-07
9.70738e-08
8.20742e-08
6.87411e-08
5.71207e-08
4.71537e-08
3.87152e-08
3.16445e-08
2.57316e-08
2.07994e-08
2.03268e-08
2.13609e-08
2.15656e-08
2.15785e-08
2.17362e-08
2.20421e-08
2.22185e-08
2.22343e-08
2.21491e-08
2.19614e-08
2.16776e-08
2.13128e-08
2.08771e-08
2.03737e-08
1.98057e-08
1.91754e-08
1.849e-08
1.77595e-08
1.6994e-08
1.62014e-08
1.53894e-08
1.4569e-08
1.37479e-08
1.29378e-08
1.21414e-08
1.1365e-08
1.06131e-08
9.88775e-09
9.19481e-09
8.53114e-09
7.9024e-09
7.31014e-09
6.75328e-09
6.23138e-09
5.74154e-09
5.2834e-09
4.85982e-09
4.46933e-09
4.09918e-09
3.74512e-09
3.58066e-09
3.53952e-09
3.46984e-09
3.38276e-09
3.31572e-09
3.2664e-09
3.23243e-09
3.21466e-09
3.21378e-09
3.22542e-09
3.24318e-09
3.27486e-09
3.31667e-09
3.35202e-09
3.38048e-09
3.41244e-09
3.45153e-09
3.49795e-09
3.54784e-09
3.59523e-09
3.64053e-09
3.68403e-09
3.72992e-09
3.77641e-09
3.82304e-09
3.86874e-09
3.91322e-09
3.95636e-09
3.99756e-09
4.03732e-09
4.07459e-09
4.11036e-09
4.14325e-09
4.17358e-09
4.20125e-09
4.22617e-09
4.24864e-09
4.26924e-09
4.28785e-09
4.30456e-09
4.31953e-09
4.33297e-09
4.34522e-09
4.35633e-09
4.36644e-09
4.37571e-09
4.38435e-09
4.39253e-09
4.40032e-09
4.40778e-09
4.41484e-09
4.42163e-09
4.42819e-09
4.43461e-09
4.44105e-09
4.44744e-09
4.45373e-09
4.4598e-09
4.46534e-09
4.47044e-09
4.47521e-09
4.47975e-09
4.48333e-09
4.48568e-09
4.48646e-09
4.4861e-09
4.48387e-09
4.48023e-09
4.4747e-09
4.46842e-09
4.46124e-09
4.45413e-09
4.4477e-09
4.4453e-09
4.44904e-09
4.45544e-09
4.46096e-09
4.46728e-09
4.47713e-09
4.48547e-09
4.4801e-09
4.47804e-09
4.51346e-09
4.58458e-09
4.69196e-09
4.83645e-09
5.0192e-09
5.24163e-09
5.50553e-09
5.81297e-09
6.16639e-09
6.56858e-09
7.02272e-09
7.53241e-09
8.10315e-09
8.74997e-09
9.48882e-09
1.03234e-08
1.12499e-08
1.22575e-08
1.33376e-08
1.45067e-08
1.57898e-08
1.71977e-08
1.87416e-08
2.04338e-08
2.22876e-08
2.43177e-08
2.65402e-08
2.89725e-08
3.1634e-08
3.45457e-08
3.77307e-08
4.1214e-08
4.50234e-08
4.91888e-08
5.37434e-08
5.8723e-08
6.4167e-08
7.01186e-08
7.66248e-08
8.37371e-08
9.15117e-08
1.0001e-07
1.09299e-07
1.19453e-07
1.30552e-07
1.42684e-07
1.55943e-07
1.70437e-07
1.86278e-07
2.03593e-07
2.22519e-07
2.43204e-07
2.18182e-07
2.17843e-07
2.12317e-07
2.02116e-07
1.8814e-07
1.7151e-07
1.53399e-07
1.34879e-07
1.16827e-07
9.98822e-08
8.44488e-08
7.07301e-08
5.87737e-08
4.85186e-08
3.98361e-08
3.25608e-08
2.64769e-08
2.1402e-08
2.09157e-08
2.19796e-08
2.21902e-08
2.22034e-08
2.23656e-08
2.26803e-08
2.28617e-08
2.2878e-08
2.27902e-08
2.2597e-08
2.23051e-08
2.19296e-08
2.14813e-08
2.09634e-08
2.03789e-08
1.97304e-08
1.90252e-08
1.82736e-08
1.74859e-08
1.66703e-08
1.58349e-08
1.49908e-08
1.41459e-08
1.33124e-08
1.2493e-08
1.16941e-08
1.09205e-08
1.01742e-08
9.46124e-09
8.77838e-09
8.13148e-09
7.52209e-09
6.94915e-09
6.41217e-09
5.90818e-09
5.4368e-09
5.00099e-09
4.59921e-09
4.21838e-09
3.8541e-09
3.6848e-09
3.64231e-09
3.57053e-09
3.48087e-09
3.41185e-09
3.36109e-09
3.32612e-09
3.30782e-09
3.30692e-09
3.31889e-09
3.33716e-09
3.36976e-09
3.41278e-09
3.44914e-09
3.47843e-09
3.51131e-09
3.55153e-09
3.59929e-09
3.65062e-09
3.69938e-09
3.74599e-09
3.79074e-09
3.83796e-09
3.88579e-09
3.93377e-09
3.98079e-09
4.02655e-09
4.07094e-09
4.11334e-09
4.15424e-09
4.19259e-09
4.2294e-09
4.26324e-09
4.29444e-09
4.32291e-09
4.34855e-09
4.37167e-09
4.39286e-09
4.41202e-09
4.42921e-09
4.44462e-09
4.45844e-09
4.47105e-09
4.48248e-09
4.49289e-09
4.50242e-09
4.51131e-09
4.51973e-09
4.52775e-09
4.53543e-09
4.54269e-09
4.54968e-09
4.55643e-09
4.56304e-09
4.56967e-09
4.57624e-09
4.58272e-09
4.58896e-09
4.59467e-09
4.59992e-09
4.60483e-09
4.6095e-09
4.61319e-09
4.61561e-09
4.61642e-09
4.61605e-09
4.61376e-09
4.61003e-09
4.60434e-09
4.59788e-09
4.5905e-09
4.58319e-09
4.57657e-09
4.57412e-09
4.57797e-09
4.58456e-09
4.59024e-09
4.59676e-09
4.6069e-09
4.61548e-09
4.60996e-09
4.60786e-09
4.64431e-09
4.7175e-09
4.82799e-09
4.97667e-09
5.1647e-09
5.39358e-09
5.66512e-09
5.98146e-09
6.3451e-09
6.75893e-09
7.22621e-09
7.75065e-09
8.33789e-09
9.00339e-09
9.76356e-09
1.06223e-08
1.15756e-08
1.26124e-08
1.37237e-08
1.49267e-08
1.62469e-08
1.76955e-08
1.92841e-08
2.10253e-08
2.29327e-08
2.50215e-08
2.73082e-08
2.98109e-08
3.25494e-08
3.55453e-08
3.88224e-08
4.24065e-08
4.6326e-08
5.0612e-08
5.52982e-08
6.04218e-08
6.60234e-08
7.21471e-08
7.88415e-08
8.61595e-08
9.41589e-08
1.02903e-07
1.12461e-07
1.22909e-07
1.34329e-07
1.46811e-07
1.60455e-07
1.75368e-07
1.91668e-07
2.09484e-07
2.28957e-07
2.50242e-07
2.30632e-07
2.30273e-07
2.2443e-07
2.13647e-07
1.98873e-07
1.81295e-07
1.6215e-07
1.42574e-07
1.23492e-07
1.05581e-07
8.92673e-08
7.47661e-08
6.21277e-08
5.12876e-08
4.21098e-08
3.44196e-08
2.79886e-08
2.26241e-08
2.211e-08
2.32345e-08
2.3457e-08
2.34709e-08
2.36423e-08
2.39749e-08
2.41666e-08
2.41837e-08
2.40909e-08
2.38867e-08
2.3578e-08
2.31811e-08
2.27073e-08
2.21597e-08
2.15419e-08
2.08564e-08
2.01109e-08
1.93165e-08
1.84839e-08
1.76218e-08
1.67386e-08
1.58464e-08
1.49533e-08
1.40723e-08
1.32061e-08
1.23617e-08
1.1544e-08
1.07551e-08
1.00015e-08
9.27971e-09
8.59592e-09
7.95179e-09
7.34618e-09
6.77858e-09
6.24586e-09
5.7476e-09
5.28695e-09
4.86227e-09
4.45973e-09
4.07469e-09
3.89564e-09
3.85056e-09
3.77459e-09
3.67974e-09
3.60675e-09
3.55306e-09
3.51608e-09
3.49673e-09
3.49578e-09
3.50843e-09
3.52774e-09
3.5622e-09
3.60766e-09
3.6461e-09
3.67706e-09
3.71181e-09
3.75432e-09
3.80481e-09
3.85906e-09
3.9106e-09
3.95987e-09
4.00717e-09
4.05708e-09
4.10764e-09
4.15836e-09
4.20805e-09
4.25643e-09
4.30334e-09
4.34816e-09
4.39139e-09
4.43193e-09
4.47084e-09
4.50661e-09
4.53959e-09
4.56969e-09
4.59679e-09
4.62122e-09
4.64363e-09
4.66387e-09
4.68205e-09
4.69833e-09
4.71295e-09
4.72627e-09
4.73836e-09
4.74936e-09
4.75944e-09
4.76884e-09
4.77774e-09
4.78622e-09
4.79434e-09
4.80202e-09
4.80941e-09
4.81654e-09
4.82353e-09
4.83054e-09
4.83749e-09
4.84434e-09
4.85094e-09
4.85698e-09
4.86253e-09
4.86773e-09
4.87266e-09
4.87657e-09
4.87913e-09
4.87999e-09
4.8796e-09
4.87719e-09
4.87325e-09
4.86724e-09
4.86042e-09
4.85262e-09
4.8449e-09
4.83791e-09
4.83532e-09
4.8394e-09
4.84637e-09
4.85238e-09
4.85928e-09
4.87001e-09
4.87909e-09
4.87327e-09
4.87105e-09
4.90959e-09
4.98696e-09
5.10377e-09
5.26093e-09
5.4597e-09
5.70165e-09
5.98868e-09
6.32307e-09
6.70747e-09
7.14491e-09
7.63886e-09
8.19322e-09
8.81396e-09
9.51738e-09
1.03209e-08
1.12285e-08
1.22363e-08
1.33323e-08
1.45071e-08
1.57787e-08
1.71742e-08
1.87055e-08
2.03847e-08
2.22252e-08
2.42414e-08
2.64494e-08
2.88665e-08
3.1512e-08
3.44067e-08
3.75735e-08
4.10375e-08
4.48261e-08
4.89692e-08
5.34997e-08
5.84533e-08
6.38692e-08
6.97903e-08
7.62634e-08
8.33397e-08
9.10751e-08
9.9531e-08
1.08774e-07
1.18878e-07
1.29921e-07
1.41993e-07
1.55187e-07
1.6961e-07
1.85373e-07
2.02604e-07
2.21437e-07
2.42022e-07
2.64521e-07
2.49756e-07
2.49366e-07
2.43038e-07
2.31361e-07
2.15362e-07
1.96325e-07
1.75594e-07
1.54394e-07
1.33731e-07
1.14335e-07
9.66689e-08
8.09656e-08
6.72796e-08
5.55409e-08
4.56023e-08
3.72746e-08
3.03104e-08
2.45011e-08
2.39442e-08
2.51619e-08
2.54028e-08
2.54178e-08
2.56033e-08
2.59634e-08
2.61709e-08
2.61894e-08
2.60888e-08
2.58676e-08
2.55333e-08
2.51035e-08
2.45903e-08
2.39973e-08
2.33283e-08
2.25859e-08
2.17787e-08
2.09184e-08
2.00168e-08
1.90832e-08
1.81268e-08
1.71606e-08
1.61935e-08
1.52395e-08
1.43015e-08
1.33871e-08
1.25017e-08
1.16474e-08
1.08313e-08
1.00497e-08
9.30921e-09
8.6117e-09
7.95589e-09
7.34126e-09
6.76439e-09
6.22486e-09
5.72603e-09
5.26617e-09
4.83028e-09
4.41334e-09
4.21934e-09
4.17033e-09
4.08794e-09
3.98516e-09
3.90606e-09
3.84789e-09
3.80782e-09
3.78687e-09
3.78583e-09
3.79953e-09
3.82044e-09
3.85775e-09
3.90698e-09
3.9486e-09
3.98212e-09
4.01975e-09
4.06579e-09
4.12046e-09
4.17921e-09
4.23501e-09
4.28836e-09
4.33959e-09
4.39363e-09
4.44838e-09
4.5033e-09
4.55711e-09
4.6095e-09
4.6603e-09
4.70883e-09
4.75565e-09
4.79954e-09
4.84168e-09
4.88041e-09
4.91613e-09
4.94872e-09
4.97807e-09
5.00453e-09
5.02879e-09
5.05071e-09
5.0704e-09
5.08804e-09
5.10386e-09
5.11829e-09
5.13139e-09
5.1433e-09
5.15421e-09
5.16439e-09
5.17403e-09
5.18322e-09
5.19201e-09
5.20033e-09
5.20833e-09
5.21606e-09
5.22363e-09
5.23122e-09
5.23876e-09
5.24618e-09
5.25333e-09
5.25987e-09
5.26589e-09
5.27152e-09
5.27687e-09
5.2811e-09
5.28388e-09
5.28482e-09
5.2844e-09
5.28179e-09
5.27752e-09
5.27102e-09
5.26364e-09
5.25521e-09
5.24686e-09
5.23929e-09
5.2365e-09
5.24092e-09
5.24848e-09
5.255e-09
5.26247e-09
5.2741e-09
5.28395e-09
5.27765e-09
5.27526e-09
5.31701e-09
5.4008e-09
5.5273e-09
5.6975e-09
5.91276e-09
6.17477e-09
6.48561e-09
6.84773e-09
7.26401e-09
7.73772e-09
8.27263e-09
8.87295e-09
9.54516e-09
1.03068e-08
1.11769e-08
1.21598e-08
1.32511e-08
1.44381e-08
1.57103e-08
1.70874e-08
1.85985e-08
2.02568e-08
2.20752e-08
2.40683e-08
2.62517e-08
2.86427e-08
3.12602e-08
3.4125e-08
3.72597e-08
4.06891e-08
4.44403e-08
4.85429e-08
5.30295e-08
5.79356e-08
6.32998e-08
6.91647e-08
7.55767e-08
8.25865e-08
9.02494e-08
9.86262e-08
1.07783e-07
1.17793e-07
1.28734e-07
1.40693e-07
1.53766e-07
1.68054e-07
1.83672e-07
2.00743e-07
2.19402e-07
2.39797e-07
2.6209e-07
2.86456e-07
2.76107e-07
2.75675e-07
2.68678e-07
2.55768e-07
2.38081e-07
2.17037e-07
1.94118e-07
1.70682e-07
1.47839e-07
1.26397e-07
1.06868e-07
8.95081e-08
7.43785e-08
6.14016e-08
5.04146e-08
4.12084e-08
3.35095e-08
2.70874e-08
2.64717e-08
2.78176e-08
2.80839e-08
2.81004e-08
2.83053e-08
2.87033e-08
2.89326e-08
2.8953e-08
2.88417e-08
2.85971e-08
2.82275e-08
2.77523e-08
2.7185e-08
2.65295e-08
2.57899e-08
2.49691e-08
2.40767e-08
2.31257e-08
2.21289e-08
2.10969e-08
2.00396e-08
1.89716e-08
1.79024e-08
1.68477e-08
1.58109e-08
1.48e-08
1.38212e-08
1.28768e-08
1.19746e-08
1.11106e-08
1.0292e-08
9.52097e-09
8.79601e-09
8.11656e-09
7.47886e-09
6.88243e-09
6.33101e-09
5.82267e-09
5.34082e-09
4.87992e-09
4.66534e-09
4.61092e-09
4.51969e-09
4.40597e-09
4.31847e-09
4.25413e-09
4.20981e-09
4.18664e-09
4.18549e-09
4.20063e-09
4.22374e-09
4.26499e-09
4.31941e-09
4.36541e-09
4.40247e-09
4.44407e-09
4.49495e-09
4.55539e-09
4.62033e-09
4.68202e-09
4.741e-09
4.79762e-09
4.85737e-09
4.91789e-09
4.9786e-09
5.03809e-09
5.09599e-09
5.15216e-09
5.20581e-09
5.25756e-09
5.30608e-09
5.35266e-09
5.39548e-09
5.43497e-09
5.471e-09
5.50344e-09
5.53269e-09
5.55952e-09
5.58375e-09
5.60551e-09
5.62501e-09
5.6425e-09
5.65846e-09
5.67294e-09
5.6861e-09
5.69817e-09
5.70943e-09
5.72009e-09
5.73024e-09
5.73997e-09
5.74917e-09
5.75802e-09
5.76656e-09
5.77494e-09
5.78333e-09
5.79166e-09
5.79987e-09
5.80778e-09
5.81502e-09
5.82167e-09
5.8279e-09
5.83382e-09
5.8385e-09
5.84158e-09
5.84262e-09
5.84217e-09
5.83929e-09
5.83458e-09
5.8274e-09
5.81925e-09
5.80993e-09
5.80071e-09
5.79235e-09
5.78927e-09
5.79417e-09
5.80254e-09
5.80975e-09
5.81803e-09
5.83089e-09
5.84179e-09
5.83484e-09
5.83221e-09
5.87838e-09
5.97102e-09
6.11087e-09
6.29904e-09
6.53702e-09
6.82668e-09
7.17032e-09
7.57066e-09
8.03085e-09
8.55455e-09
9.14589e-09
9.80955e-09
1.05527e-08
1.13946e-08
1.23564e-08
1.3443e-08
1.46495e-08
1.59617e-08
1.73683e-08
1.88906e-08
2.05611e-08
2.23943e-08
2.44046e-08
2.66079e-08
2.90216e-08
3.16649e-08
3.45586e-08
3.77256e-08
4.11909e-08
4.49821e-08
4.9129e-08
5.36644e-08
5.86243e-08
6.40479e-08
6.9978e-08
7.64617e-08
8.355e-08
9.12993e-08
9.97706e-08
1.09031e-07
1.19154e-07
1.30219e-07
1.42315e-07
1.55536e-07
1.69988e-07
1.85784e-07
2.0305e-07
2.21922e-07
2.4255e-07
2.65097e-07
2.89742e-07
3.1668e-07
3.10449e-07
3.0996e-07
3.02092e-07
2.87576e-07
2.67689e-07
2.44028e-07
2.18259e-07
1.91909e-07
1.66225e-07
1.42117e-07
1.20159e-07
1.00641e-07
8.36298e-08
6.90393e-08
5.66862e-08
4.63352e-08
3.76788e-08
3.0458e-08
2.97655e-08
3.12787e-08
3.1578e-08
3.15964e-08
3.18267e-08
3.22741e-08
3.25318e-08
3.25546e-08
3.24294e-08
3.21543e-08
3.17387e-08
3.12044e-08
3.05665e-08
2.98294e-08
2.89978e-08
2.8075e-08
2.70716e-08
2.60022e-08
2.48816e-08
2.37212e-08
2.25325e-08
2.13316e-08
2.01295e-08
1.89437e-08
1.77779e-08
1.66414e-08
1.55408e-08
1.4479e-08
1.34647e-08
1.24932e-08
1.15729e-08
1.0706e-08
9.89091e-09
9.127e-09
8.41002e-09
7.73945e-09
7.11949e-09
6.54796e-09
6.00623e-09
5.48805e-09
5.24662e-09
5.18514e-09
5.08238e-09
4.95442e-09
4.85596e-09
4.78357e-09
4.73371e-09
4.70764e-09
4.70635e-09
4.72336e-09
4.74935e-09
4.79572e-09
4.8569e-09
4.90862e-09
4.95029e-09
4.99705e-09
5.05426e-09
5.12221e-09
5.19523e-09
5.26458e-09
5.33089e-09
5.39455e-09
5.46173e-09
5.52977e-09
5.59803e-09
5.66491e-09
5.73002e-09
5.79316e-09
5.85348e-09
5.91167e-09
5.96622e-09
6.01859e-09
6.06674e-09
6.11114e-09
6.15164e-09
6.18812e-09
6.22101e-09
6.25117e-09
6.27842e-09
6.30289e-09
6.32481e-09
6.34448e-09
6.36242e-09
6.3787e-09
6.39351e-09
6.40708e-09
6.41974e-09
6.43172e-09
6.44315e-09
6.45408e-09
6.46443e-09
6.47438e-09
6.48399e-09
6.49341e-09
6.50285e-09
6.51223e-09
6.52146e-09
6.53036e-09
6.5385e-09
6.54599e-09
6.55299e-09
6.55966e-09
6.56493e-09
6.5684e-09
6.56958e-09
6.56907e-09
6.56584e-09
6.56056e-09
6.55249e-09
6.54334e-09
6.53287e-09
6.52251e-09
6.51313e-09
6.50968e-09
6.5152e-09
6.52461e-09
6.53274e-09
6.54206e-09
6.55653e-09
6.5688e-09
6.561e-09
6.55806e-09
6.60998e-09
6.71416e-09
6.87143e-09
7.08301e-09
7.35059e-09
7.67629e-09
8.06268e-09
8.51281e-09
9.03025e-09
9.61908e-09
1.0284e-08
1.10302e-08
1.18657e-08
1.28123e-08
1.38936e-08
1.51153e-08
1.64718e-08
1.79474e-08
1.95289e-08
2.12406e-08
2.31189e-08
2.51801e-08
2.74403e-08
2.99176e-08
3.26315e-08
3.56035e-08
3.8857e-08
4.24178e-08
4.63141e-08
5.05767e-08
5.52393e-08
6.03388e-08
6.59155e-08
7.20135e-08
7.86811e-08
8.5971e-08
9.39409e-08
1.02654e-07
1.12179e-07
1.22591e-07
1.33973e-07
1.46414e-07
1.60014e-07
1.74879e-07
1.91128e-07
2.08889e-07
2.28303e-07
2.49522e-07
2.72716e-07
2.98068e-07
3.25779e-07
3.56068e-07
3.53774e-07
3.53215e-07
3.44247e-07
3.27705e-07
3.05042e-07
2.78079e-07
2.48714e-07
2.18688e-07
1.89421e-07
1.61949e-07
1.36927e-07
1.14686e-07
9.53014e-08
7.86752e-08
6.45985e-08
5.28033e-08
4.29391e-08
3.47105e-08
3.39212e-08
3.56454e-08
3.59864e-08
3.60072e-08
3.62695e-08
3.67791e-08
3.70726e-08
3.70984e-08
3.69557e-08
3.66421e-08
3.61685e-08
3.55595e-08
3.48325e-08
3.39926e-08
3.30449e-08
3.19933e-08
3.08499e-08
2.96314e-08
2.83543e-08
2.7032e-08
2.56775e-08
2.4309e-08
2.29393e-08
2.1588e-08
2.02596e-08
1.89645e-08
1.77104e-08
1.65005e-08
1.53447e-08
1.42377e-08
1.3189e-08
1.22012e-08
1.12724e-08
1.04019e-08
9.58494e-09
8.82084e-09
8.11442e-09
7.46318e-09
6.8459e-09
6.25547e-09
5.98014e-09
5.9097e-09
5.79237e-09
5.6464e-09
5.53411e-09
5.45156e-09
5.39471e-09
5.36499e-09
5.36351e-09
5.38289e-09
5.4125e-09
5.46533e-09
5.53505e-09
5.59398e-09
5.64145e-09
5.69474e-09
5.75992e-09
5.83735e-09
5.92055e-09
5.99958e-09
6.07513e-09
6.14768e-09
6.22422e-09
6.30175e-09
6.37953e-09
6.45574e-09
6.52993e-09
6.60188e-09
6.67061e-09
6.73692e-09
6.79908e-09
6.85876e-09
6.91362e-09
6.96422e-09
7.01037e-09
7.05194e-09
7.08942e-09
7.12379e-09
7.15484e-09
7.18272e-09
7.20771e-09
7.23012e-09
7.25057e-09
7.26912e-09
7.286e-09
7.30147e-09
7.31589e-09
7.32955e-09
7.34257e-09
7.35504e-09
7.36683e-09
7.37818e-09
7.38914e-09
7.39988e-09
7.41064e-09
7.42133e-09
7.43185e-09
7.442e-09
7.45129e-09
7.45983e-09
7.46782e-09
7.47541e-09
7.48143e-09
7.4854e-09
7.48674e-09
7.48618e-09
7.48251e-09
7.4765e-09
7.46732e-09
7.4569e-09
7.44499e-09
7.43319e-09
7.42252e-09
7.4186e-09
7.4249e-09
7.43565e-09
7.44492e-09
7.45556e-09
7.47207e-09
7.48607e-09
7.4772e-09
7.47387e-09
7.53306e-09
7.6518e-09
7.83102e-09
8.07215e-09
8.37709e-09
8.74825e-09
9.18856e-09
9.70152e-09
1.02912e-08
1.09622e-08
1.17199e-08
1.25702e-08
1.35223e-08
1.46009e-08
1.5833e-08
1.72251e-08
1.87709e-08
2.04526e-08
2.22549e-08
2.42054e-08
2.63458e-08
2.86946e-08
3.12703e-08
3.40932e-08
3.71858e-08
4.05724e-08
4.42799e-08
4.83376e-08
5.27776e-08
5.76349e-08
6.29481e-08
6.87591e-08
7.5114e-08
8.20629e-08
8.96608e-08
9.79679e-08
1.0705e-07
1.16979e-07
1.27832e-07
1.39698e-07
1.52668e-07
1.66845e-07
1.82343e-07
1.99283e-07
2.17799e-07
2.38038e-07
2.60161e-07
2.84342e-07
3.10773e-07
3.39664e-07
3.71243e-07
4.05761e-07
4.07336e-07
4.06689e-07
3.96362e-07
3.77314e-07
3.5122e-07
3.20175e-07
2.86365e-07
2.51793e-07
2.18096e-07
1.86466e-07
1.57657e-07
1.32049e-07
1.09731e-07
9.05882e-08
7.43808e-08
6.08002e-08
4.94426e-08
3.99684e-08
3.90593e-08
4.10442e-08
4.14367e-08
4.14605e-08
4.17622e-08
4.23487e-08
4.26865e-08
4.27161e-08
4.25516e-08
4.21905e-08
4.1645e-08
4.09438e-08
4.01067e-08
3.91396e-08
3.80484e-08
3.68376e-08
3.55211e-08
3.41181e-08
3.26478e-08
3.11253e-08
2.95657e-08
2.79902e-08
2.64131e-08
2.48573e-08
2.33278e-08
2.18368e-08
2.03929e-08
1.89999e-08
1.76691e-08
1.63946e-08
1.51872e-08
1.40499e-08
1.29805e-08
1.19784e-08
1.10378e-08
1.01581e-08
9.34475e-09
8.59498e-09
7.88432e-09
7.20457e-09
6.88729e-09
6.80568e-09
6.67029e-09
6.50203e-09
6.37262e-09
6.27748e-09
6.21199e-09
6.17775e-09
6.17603e-09
6.19835e-09
6.23242e-09
6.29325e-09
6.37351e-09
6.44136e-09
6.49601e-09
6.55736e-09
6.6324e-09
6.72154e-09
6.81733e-09
6.90832e-09
6.9953e-09
7.07882e-09
7.16694e-09
7.2562e-09
7.34575e-09
7.4335e-09
7.51891e-09
7.60175e-09
7.68089e-09
7.75723e-09
7.8288e-09
7.89751e-09
7.96067e-09
8.01892e-09
8.07206e-09
8.11992e-09
8.16308e-09
8.20265e-09
8.2384e-09
8.27051e-09
8.29927e-09
8.32509e-09
8.34863e-09
8.36999e-09
8.38943e-09
8.40724e-09
8.42386e-09
8.43959e-09
8.45459e-09
8.46894e-09
8.48253e-09
8.49559e-09
8.50822e-09
8.52059e-09
8.53299e-09
8.54531e-09
8.55743e-09
8.56912e-09
8.57982e-09
8.58966e-09
8.59887e-09
8.60763e-09
8.61457e-09
8.61915e-09
8.62071e-09
8.62008e-09
8.61587e-09
8.60896e-09
8.59841e-09
8.58642e-09
8.57272e-09
8.55916e-09
8.54689e-09
8.54239e-09
8.54967e-09
8.56206e-09
8.57276e-09
8.58503e-09
8.60406e-09
8.62021e-09
8.61002e-09
8.60622e-09
8.6744e-09
8.81113e-09
9.01751e-09
9.29516e-09
9.64628e-09
1.00737e-08
1.05806e-08
1.11713e-08
1.18502e-08
1.26228e-08
1.34952e-08
1.44743e-08
1.55705e-08
1.68123e-08
1.82307e-08
1.98335e-08
2.16134e-08
2.35498e-08
2.56252e-08
2.78709e-08
3.03353e-08
3.30397e-08
3.60053e-08
3.92555e-08
4.28163e-08
4.67156e-08
5.09843e-08
5.56562e-08
6.07683e-08
6.63609e-08
7.24784e-08
7.9169e-08
8.64858e-08
9.44866e-08
1.03235e-07
1.12799e-07
1.23256e-07
1.34688e-07
1.47185e-07
1.60846e-07
1.75779e-07
1.92103e-07
2.09947e-07
2.29451e-07
2.50771e-07
2.74075e-07
2.99547e-07
3.27389e-07
3.57823e-07
3.91088e-07
4.27449e-07
4.67195e-07
4.72686e-07
4.71931e-07
4.59944e-07
4.37839e-07
4.07558e-07
3.71533e-07
3.323e-07
2.92183e-07
2.53082e-07
2.16378e-07
1.82949e-07
1.53234e-07
1.27336e-07
1.05123e-07
8.63164e-08
7.05576e-08
5.73781e-08
4.6384e-08
4.53288e-08
4.76317e-08
4.8087e-08
4.81143e-08
4.84642e-08
4.91445e-08
4.95362e-08
4.95703e-08
4.93792e-08
4.896e-08
4.83269e-08
4.75131e-08
4.65417e-08
4.54194e-08
4.41532e-08
4.27481e-08
4.12204e-08
3.95924e-08
3.78862e-08
3.61195e-08
3.43098e-08
3.24816e-08
3.06516e-08
2.88463e-08
2.70715e-08
2.53413e-08
2.36659e-08
2.20495e-08
2.05054e-08
1.90265e-08
1.76255e-08
1.63058e-08
1.5065e-08
1.39022e-08
1.28108e-08
1.179e-08
1.08463e-08
9.97638e-09
9.1518e-09
8.3631e-09
7.99456e-09
7.89919e-09
7.74167e-09
7.54616e-09
7.39582e-09
7.28532e-09
7.20925e-09
7.16949e-09
7.1675e-09
7.19338e-09
7.23292e-09
7.30349e-09
7.39661e-09
7.47533e-09
7.53874e-09
7.60992e-09
7.697e-09
7.80042e-09
7.91157e-09
8.01714e-09
8.11807e-09
8.21498e-09
8.31723e-09
8.4208e-09
8.52471e-09
8.62652e-09
8.72563e-09
8.82175e-09
8.91357e-09
9.00216e-09
9.0852e-09
9.16493e-09
9.23822e-09
9.30582e-09
9.36748e-09
9.42302e-09
9.4731e-09
9.51901e-09
9.5605e-09
9.59776e-09
9.63114e-09
9.6611e-09
9.68842e-09
9.71321e-09
9.73577e-09
9.75645e-09
9.77573e-09
9.79399e-09
9.8114e-09
9.82807e-09
9.84384e-09
9.85901e-09
9.87366e-09
9.88803e-09
9.90243e-09
9.91673e-09
9.93081e-09
9.94439e-09
9.95682e-09
9.96825e-09
9.97895e-09
9.98913e-09
9.99719e-09
1.00025e-08
1.00044e-08
1.00036e-08
9.99876e-09
9.99077e-09
9.97854e-09
9.96466e-09
9.94878e-09
9.93307e-09
9.91885e-09
9.91366e-09
9.92213e-09
9.93654e-09
9.94898e-09
9.96325e-09
9.98537e-09
1.00041e-08
9.99235e-09
9.98798e-09
1.00671e-08
1.02258e-08
1.04653e-08
1.07876e-08
1.1195e-08
1.1691e-08
1.22793e-08
1.29647e-08
1.37526e-08
1.46491e-08
1.56615e-08
1.67976e-08
1.80697e-08
1.95104e-08
2.11562e-08
2.3016e-08
2.50815e-08
2.73288e-08
2.97373e-08
3.23433e-08
3.5203e-08
3.83411e-08
4.17824e-08
4.5554e-08
4.96859e-08
5.42107e-08
5.91641e-08
6.45854e-08
7.05174e-08
7.70071e-08
8.41058e-08
9.18697e-08
1.0036e-07
1.09644e-07
1.19795e-07
1.30894e-07
1.43028e-07
1.56294e-07
1.70795e-07
1.86648e-07
2.03977e-07
2.22919e-07
2.43625e-07
2.66258e-07
2.90998e-07
3.1804e-07
3.47599e-07
3.79909e-07
4.15225e-07
4.53828e-07
4.96024e-07
5.42149e-07
5.51713e-07
5.50826e-07
5.36832e-07
5.11029e-07
4.75685e-07
4.33637e-07
3.87847e-07
3.41025e-07
2.95388e-07
2.52551e-07
2.13534e-07
1.78853e-07
1.48627e-07
1.22701e-07
1.00751e-07
8.23583e-08
6.69756e-08
5.41436e-08
5.29114e-08
5.55989e-08
5.61301e-08
5.61616e-08
5.65694e-08
5.73631e-08
5.78199e-08
5.78594e-08
5.76361e-08
5.71466e-08
5.64076e-08
5.54576e-08
5.43238e-08
5.30137e-08
5.15358e-08
4.98958e-08
4.81128e-08
4.62126e-08
4.42213e-08
4.21593e-08
4.00471e-08
3.79134e-08
3.57775e-08
3.36705e-08
3.15992e-08
2.95799e-08
2.76245e-08
2.5738e-08
2.39358e-08
2.22098e-08
2.05747e-08
1.90345e-08
1.75864e-08
1.62293e-08
1.49556e-08
1.37643e-08
1.2663e-08
1.16477e-08
1.06854e-08
9.76497e-09
9.33433e-09
9.2221e-09
9.0377e-09
8.80915e-09
8.63345e-09
8.50434e-09
8.41547e-09
8.36902e-09
8.36669e-09
8.39688e-09
8.44301e-09
8.52536e-09
8.63404e-09
8.72591e-09
8.7999e-09
8.88297e-09
8.98458e-09
9.10529e-09
9.235e-09
9.35821e-09
9.476e-09
9.5891e-09
9.70843e-09
9.8293e-09
9.95056e-09
1.00694e-08
1.01851e-08
1.02972e-08
1.04044e-08
1.05078e-08
1.06047e-08
1.06978e-08
1.07833e-08
1.08622e-08
1.09342e-08
1.0999e-08
1.10574e-08
1.1111e-08
1.11594e-08
1.12029e-08
1.12419e-08
1.12769e-08
1.13088e-08
1.13377e-08
1.1364e-08
1.13882e-08
1.14107e-08
1.1432e-08
1.14523e-08
1.14718e-08
1.14902e-08
1.15079e-08
1.15251e-08
1.15418e-08
1.15586e-08
1.15754e-08
1.15918e-08
1.16077e-08
1.16222e-08
1.16355e-08
1.1648e-08
1.16599e-08
1.16694e-08
1.16756e-08
1.16778e-08
1.1677e-08
1.16713e-08
1.1662e-08
1.16478e-08
1.16316e-08
1.16131e-08
1.15948e-08
1.15782e-08
1.15722e-08
1.15821e-08
1.1599e-08
1.16135e-08
1.16302e-08
1.16561e-08
1.1678e-08
1.16643e-08
1.16593e-08
1.17517e-08
1.1937e-08
1.22166e-08
1.25927e-08
1.30683e-08
1.36472e-08
1.43339e-08
1.51339e-08
1.60535e-08
1.71e-08
1.82816e-08
1.96077e-08
2.10924e-08
2.27737e-08
2.46943e-08
2.68649e-08
2.92758e-08
3.1899e-08
3.47104e-08
3.7752e-08
4.10898e-08
4.47525e-08
4.8769e-08
5.31711e-08
5.79936e-08
6.32747e-08
6.90561e-08
7.53835e-08
8.23071e-08
8.98816e-08
9.81668e-08
1.07228e-07
1.17138e-07
1.27974e-07
1.39822e-07
1.52776e-07
1.66938e-07
1.82421e-07
1.99347e-07
2.17849e-07
2.38075e-07
2.60184e-07
2.84351e-07
3.10768e-07
3.39644e-07
3.71207e-07
4.05707e-07
4.43419e-07
4.8464e-07
5.29699e-07
5.78952e-07
6.32792e-07
6.46705e-07
6.45657e-07
6.29249e-07
5.99e-07
5.57571e-07
5.08284e-07
4.54611e-07
3.99731e-07
3.46239e-07
2.96029e-07
2.50297e-07
2.09647e-07
1.74218e-07
1.43831e-07
1.18103e-07
9.65442e-08
7.85135e-08
6.34723e-08
6.20273e-08
6.51768e-08
6.57991e-08
6.58355e-08
6.6313e-08
6.72427e-08
6.77777e-08
6.78235e-08
6.75615e-08
6.69875e-08
6.61209e-08
6.50073e-08
6.36781e-08
6.21425e-08
6.041e-08
5.84878e-08
5.63978e-08
5.41705e-08
5.18364e-08
4.94195e-08
4.69438e-08
4.44428e-08
4.19394e-08
3.94698e-08
3.7042e-08
3.46752e-08
3.23833e-08
3.01722e-08
2.806e-08
2.6037e-08
2.41206e-08
2.23153e-08
2.06181e-08
1.90275e-08
1.75346e-08
1.61384e-08
1.48477e-08
1.36578e-08
1.253e-08
1.14513e-08
1.09458e-08
1.0813e-08
1.05961e-08
1.03277e-08
1.01215e-08
9.96994e-09
9.86566e-09
9.81117e-09
9.80842e-09
9.84379e-09
9.89784e-09
9.99435e-09
1.01217e-08
1.02294e-08
1.03161e-08
1.04134e-08
1.05325e-08
1.0674e-08
1.0826e-08
1.09704e-08
1.11085e-08
1.1241e-08
1.13809e-08
1.15226e-08
1.16647e-08
1.18039e-08
1.19395e-08
1.2071e-08
1.21966e-08
1.23178e-08
1.24314e-08
1.25404e-08
1.26407e-08
1.27332e-08
1.28175e-08
1.28935e-08
1.2962e-08
1.30248e-08
1.30816e-08
1.31326e-08
1.31782e-08
1.32192e-08
1.32566e-08
1.32906e-08
1.33214e-08
1.33497e-08
1.33761e-08
1.34011e-08
1.3425e-08
1.34478e-08
1.34694e-08
1.34902e-08
1.35103e-08
1.35299e-08
1.35497e-08
1.35693e-08
1.35886e-08
1.36072e-08
1.36242e-08
1.36399e-08
1.36546e-08
1.36686e-08
1.36796e-08
1.3687e-08
1.36895e-08
1.36886e-08
1.3682e-08
1.36712e-08
1.36545e-08
1.36356e-08
1.36139e-08
1.35925e-08
1.35732e-08
1.35661e-08
1.35778e-08
1.35976e-08
1.36147e-08
1.36344e-08
1.36647e-08
1.36905e-08
1.36745e-08
1.36687e-08
1.37771e-08
1.39943e-08
1.43221e-08
1.4763e-08
1.53206e-08
1.59992e-08
1.68042e-08
1.77419e-08
1.88198e-08
2.00465e-08
2.14315e-08
2.29859e-08
2.47262e-08
2.66966e-08
2.89475e-08
3.14915e-08
3.43176e-08
3.73929e-08
4.06887e-08
4.42539e-08
4.81662e-08
5.24594e-08
5.71673e-08
6.23271e-08
6.79798e-08
7.41699e-08
8.09465e-08
8.83631e-08
9.64784e-08
1.05357e-07
1.15068e-07
1.25689e-07
1.37305e-07
1.50006e-07
1.63894e-07
1.79077e-07
1.95678e-07
2.13825e-07
2.33665e-07
2.55352e-07
2.79059e-07
3.04974e-07
3.33302e-07
3.64267e-07
3.98114e-07
4.35111e-07
4.75552e-07
5.19757e-07
5.68077e-07
6.20895e-07
6.78631e-07
7.41746e-07
7.60409e-07
7.59166e-07
7.39866e-07
7.04296e-07
6.55582e-07
5.97631e-07
5.34524e-07
4.69997e-07
4.07104e-07
3.4807e-07
2.94301e-07
2.46507e-07
2.04852e-07
1.69124e-07
1.38874e-07
1.13527e-07
9.23265e-08
7.46409e-08
7.29411e-08
7.66433e-08
7.73745e-08
7.74167e-08
7.79773e-08
7.90696e-08
7.9698e-08
7.97514e-08
7.94428e-08
7.87675e-08
7.77483e-08
7.64386e-08
7.48756e-08
7.30699e-08
7.10329e-08
6.87726e-08
6.63152e-08
6.36964e-08
6.09521e-08
5.81105e-08
5.51997e-08
5.22591e-08
4.93159e-08
4.64123e-08
4.35579e-08
4.07752e-08
3.80806e-08
3.5481e-08
3.29976e-08
3.06192e-08
2.83661e-08
2.62437e-08
2.42484e-08
2.23783e-08
2.06232e-08
1.89818e-08
1.74644e-08
1.60655e-08
1.47397e-08
1.34716e-08
1.28763e-08
1.27185e-08
1.24624e-08
1.21462e-08
1.19032e-08
1.17248e-08
1.1602e-08
1.15378e-08
1.15346e-08
1.15762e-08
1.16397e-08
1.17531e-08
1.19028e-08
1.20294e-08
1.21313e-08
1.22458e-08
1.23858e-08
1.25521e-08
1.27308e-08
1.29006e-08
1.30629e-08
1.32187e-08
1.33831e-08
1.35497e-08
1.37168e-08
1.38805e-08
1.40399e-08
1.41945e-08
1.43421e-08
1.44846e-08
1.46182e-08
1.47464e-08
1.48643e-08
1.4973e-08
1.50722e-08
1.51615e-08
1.5242e-08
1.53159e-08
1.53826e-08
1.54426e-08
1.54963e-08
1.55445e-08
1.55885e-08
1.56284e-08
1.56647e-08
1.5698e-08
1.5729e-08
1.57584e-08
1.57865e-08
1.58133e-08
1.58387e-08
1.58632e-08
1.58868e-08
1.591e-08
1.59332e-08
1.59563e-08
1.5979e-08
1.60009e-08
1.6021e-08
1.60395e-08
1.60568e-08
1.60732e-08
1.60863e-08
1.6095e-08
1.6098e-08
1.6097e-08
1.60893e-08
1.60765e-08
1.6057e-08
1.60348e-08
1.60094e-08
1.59843e-08
1.59616e-08
1.59534e-08
1.59672e-08
1.59906e-08
1.60108e-08
1.60339e-08
1.60697e-08
1.61001e-08
1.60814e-08
1.60746e-08
1.62022e-08
1.64577e-08
1.68432e-08
1.73617e-08
1.80173e-08
1.88152e-08
1.97618e-08
2.08645e-08
2.21319e-08
2.35743e-08
2.52028e-08
2.70305e-08
2.90766e-08
3.1393e-08
3.40391e-08
3.703e-08
4.03531e-08
4.39695e-08
4.78453e-08
5.20372e-08
5.66373e-08
6.16851e-08
6.72205e-08
7.32873e-08
7.99335e-08
8.72117e-08
9.51794e-08
1.039e-07
1.13441e-07
1.2388e-07
1.35299e-07
1.47787e-07
1.61444e-07
1.76378e-07
1.92706e-07
2.10559e-07
2.30077e-07
2.51415e-07
2.74741e-07
3.00241e-07
3.28116e-07
3.58586e-07
3.91894e-07
4.28302e-07
4.681e-07
5.11602e-07
5.59153e-07
6.11131e-07
6.67947e-07
7.30055e-07
7.97946e-07
8.72164e-07
8.96116e-07
8.94636e-07
8.71882e-07
8.29959e-07
7.7255e-07
7.04258e-07
6.29893e-07
5.53855e-07
4.79743e-07
4.10178e-07
3.46819e-07
2.90499e-07
2.41414e-07
1.99313e-07
1.63667e-07
1.33799e-07
1.08815e-07
8.79741e-08
8.59697e-08
9.03313e-08
9.11923e-08
9.12411e-08
9.19006e-08
9.31867e-08
9.39262e-08
9.39883e-08
9.36241e-08
9.28277e-08
9.16262e-08
9.00826e-08
8.82405e-08
8.61123e-08
8.37117e-08
8.10481e-08
7.81523e-08
7.50663e-08
7.18324e-08
6.84839e-08
6.50538e-08
6.15888e-08
5.81206e-08
5.46992e-08
5.13357e-08
4.80567e-08
4.48816e-08
4.18184e-08
3.88922e-08
3.60898e-08
3.34349e-08
3.09341e-08
2.8583e-08
2.63796e-08
2.43116e-08
2.23776e-08
2.05897e-08
1.89415e-08
1.73795e-08
1.58854e-08
1.51827e-08
1.49942e-08
1.4691e-08
1.43174e-08
1.40305e-08
1.38198e-08
1.36749e-08
1.35992e-08
1.35954e-08
1.36443e-08
1.37192e-08
1.38528e-08
1.40292e-08
1.41783e-08
1.42984e-08
1.44332e-08
1.45982e-08
1.47941e-08
1.50047e-08
1.52047e-08
1.53959e-08
1.55796e-08
1.57733e-08
1.59695e-08
1.61664e-08
1.63593e-08
1.65471e-08
1.67293e-08
1.69033e-08
1.70711e-08
1.72285e-08
1.73796e-08
1.75185e-08
1.76466e-08
1.77635e-08
1.78687e-08
1.79637e-08
1.80507e-08
1.81294e-08
1.82e-08
1.82633e-08
1.83201e-08
1.83719e-08
1.8419e-08
1.84618e-08
1.8501e-08
1.85376e-08
1.85723e-08
1.86054e-08
1.8637e-08
1.8667e-08
1.86959e-08
1.87237e-08
1.87511e-08
1.87785e-08
1.88057e-08
1.88325e-08
1.88584e-08
1.8882e-08
1.89039e-08
1.89243e-08
1.89437e-08
1.89592e-08
1.89695e-08
1.89731e-08
1.8972e-08
1.89629e-08
1.8948e-08
1.89251e-08
1.8899e-08
1.88692e-08
1.88396e-08
1.8813e-08
1.88034e-08
1.88198e-08
1.88474e-08
1.88713e-08
1.88987e-08
1.8941e-08
1.89769e-08
1.8955e-08
1.89471e-08
1.90975e-08
1.93988e-08
1.98531e-08