/*--------------------------------*- C++ -*----------------------------------*\
| =========                 |                                                 |
| \\      /  F ield         | OpenFOAM: The Open Source CFD Toolbox           |
|  \\    /   O peration     | Version:  2212                                  |
|   \\  /    A nd           | Website:  www.openfoam.com                      |
|    \\/     M anipulation  |                                                 |
\*---------------------------------------------------------------------------*/
FoamFile
{
    version     2.0;
    format      ascii;
    arch        "LSB;label=32;scalar=64";
    class       volScalarField;
    location    "0.064";
    object      alphat;
}
// * * * * * * * * * * * * * * * * * * * * * * * * * * * * * * * * * * * * * //

dimensions      [1 -1 -1 0 0 0 0];

internalField   nonuniform List<scalar> 
18080
(
5.0069487e-05
1.7651084e-05
1.1452637e-05
8.4685444e-06
6.6362676e-06
5.4076985e-06
4.5409122e-06
3.90302e-06
3.4178819e-06
3.0398449e-06
2.7396836e-06
2.4976111e-06
2.2997265e-06
2.1360052e-06
1.9991666e-06
1.8838352e-06
1.7860752e-06
1.703088e-06
1.6333561e-06
1.5794952e-06
1.5293561e-06
1.4828192e-06
1.4415755e-06
1.4059426e-06
1.3759271e-06
1.3515486e-06
1.332949e-06
1.3203618e-06
1.314294e-06
1.315441e-06
1.3247938e-06
1.3436985e-06
1.373969e-06
1.4178769e-06
1.4785104e-06
1.5598098e-06
1.6668955e-06
1.8065171e-06
1.9874149e-06
2.2208888e-06
2.5213143e-06
2.906376e-06
3.3966563e-06
4.0141474e-06
4.7793886e-06
5.704002e-06
6.7880081e-06
8.0017491e-06
4.4653169e-05
1.7741434e-05
1.1692637e-05
8.6853545e-06
6.8213472e-06
5.5669947e-06
4.6793592e-06
4.0240856e-06
3.5240459e-06
3.1329215e-06
2.8210112e-06
2.5681559e-06
2.3601529e-06
2.1867526e-06
2.0404696e-06
1.9157531e-06
1.8084543e-06
1.7154148e-06
1.6341868e-06
1.5625044e-06
1.4998948e-06
1.4456062e-06
1.3987116e-06
1.3585607e-06
1.324768e-06
1.2971396e-06
1.2756868e-06
1.2605833e-06
1.252184e-06
1.2513016e-06
1.2587648e-06
1.2757507e-06
1.3040483e-06
1.3459039e-06
1.4041734e-06
1.4829313e-06
1.5871501e-06
1.7236338e-06
1.9010673e-06
2.1305388e-06
2.4258297e-06
2.8032136e-06
3.2802969e-06
3.8732366e-06
4.591806e-06
5.4303406e-06
6.3645175e-06
7.3290751e-06
4.5052857e-05
1.8029445e-05
1.1820499e-05
8.7580947e-06
6.865879e-06
5.5945525e-06
4.6958029e-06
4.0330197e-06
3.5278884e-06
3.1333687e-06
2.8192928e-06
2.5651947e-06
2.356665e-06
2.1833108e-06
2.0375409e-06
1.913722e-06
1.8076432e-06
1.7161106e-06
1.6366718e-06
1.5672798e-06
1.5071679e-06
1.4551816e-06
1.4104254e-06
1.3723592e-06
1.340648e-06
1.3150767e-06
1.2955621e-06
1.28225e-06
1.2755092e-06
1.2761208e-06
1.2849219e-06
1.3031062e-06
1.3324594e-06
1.375242e-06
1.4343519e-06
1.5139204e-06
1.6189902e-06
1.756483e-06
1.9352341e-06
2.166544e-06
2.4645101e-06
2.8458993e-06
3.3291348e-06
3.9317231e-06
4.6656888e-06
5.5287651e-06
6.5009795e-06
7.5125617e-06
4.2963847e-05
1.7943824e-05
1.1809244e-05
8.7637133e-06
6.8760249e-06
5.6058707e-06
4.7072388e-06
4.0441274e-06
3.5383989e-06
3.1430828e-06
2.8280531e-06
2.5728746e-06
2.3631601e-06
2.1885338e-06
2.041418e-06
1.9161932e-06
1.8086639e-06
1.71566e-06
1.6347941e-06
1.5643272e-06
1.502728e-06
1.4489481e-06
1.4023018e-06
1.3623147e-06
1.328685e-06
1.3012863e-06
1.2801943e-06
1.2655719e-06
1.2577836e-06
1.2575274e-06
1.2656062e-06
1.2831883e-06
1.3119897e-06
1.3541819e-06
1.4126427e-06
1.4913799e-06
1.5954115e-06
1.7316031e-06
1.9087962e-06
2.1384114e-06
2.4348875e-06
2.8157723e-06
3.301078e-06
3.9112509e-06
4.6632103e-06
5.562117e-06
6.5987187e-06
7.7073059e-06
4.1664133e-05
1.7978837e-05
1.1843589e-05
8.7905106e-06
6.8965672e-06
5.6214793e-06
4.7189775e-06
4.0528147e-06
3.5446875e-06
3.1475066e-06
2.8310498e-06
2.5748022e-06
2.3643121e-06
2.1891554e-06
2.0417154e-06
1.9163385e-06
1.8088026e-06
1.7159102e-06
1.6352333e-06
1.5649155e-06
1.5035913e-06
1.4502543e-06
1.4041507e-06
1.3647471e-06
1.3317069e-06
1.3048823e-06
1.28433e-06
1.2701825e-06
1.2627829e-06
1.2628362e-06
1.2711545e-06
1.2889197e-06
1.3178771e-06
1.3602455e-06
1.4189443e-06
1.4980705e-06
1.6027376e-06
1.739973e-06
1.9188595e-06
2.1512017e-06
2.4520643e-06
2.840022e-06
3.3367687e-06
3.9654319e-06
4.7471047e-06
5.6930654e-06
6.8025272e-06
8.0096393e-06
3.9314903e-05
1.7897853e-05
1.1837077e-05
8.7972163e-06
6.9059047e-06
5.6306397e-06
4.7272745e-06
4.0601636e-06
3.5511596e-06
3.1531933e-06
2.8360255e-06
2.5791196e-06
2.3680064e-06
2.1922502e-06
2.0442274e-06
1.9182801e-06
1.810186e-06
1.7167495e-06
1.6355508e-06
1.5647599e-06
1.5029915e-06
1.4492151e-06
1.40268e-06
1.3628688e-06
1.3294556e-06
1.302282e-06
1.2813683e-06
1.266848e-06
1.2590785e-06
1.2587628e-06
1.2667061e-06
1.2840868e-06
1.312639e-06
1.3545621e-06
1.4127679e-06
1.4913379e-06
1.5953839e-06
1.7319498e-06
1.9101692e-06
2.1419804e-06
2.4427389e-06
2.8316123e-06
3.3314476e-06
3.9674849e-06
4.7643823e-06
5.7390804e-06
6.9002798e-06
8.1866813e-06
3.6191845e-05
1.7740651e-05
1.1815444e-05
8.8006534e-06
6.9151146e-06
5.640488e-06
4.736314e-06
4.0680376e-06
3.5578588e-06
3.1588199e-06
2.8407114e-06
2.5829958e-06
2.3711934e-06
2.1948561e-06
2.0463477e-06
1.9199981e-06
1.8115744e-06
1.7178711e-06
1.6364579e-06
1.5654906e-06
1.5035765e-06
1.4496848e-06
1.4030624e-06
1.3631841e-06
1.3297145e-06
1.3024895e-06
1.2815306e-06
1.2669708e-06
1.2591656e-06
1.2588117e-06
1.2667078e-06
1.2840354e-06
1.3125337e-06
1.354409e-06
1.4125913e-06
1.4911936e-06
1.5953762e-06
1.7322764e-06
1.9111835e-06
2.1443136e-06
2.4475084e-06
2.84078e-06
3.3484193e-06
3.9980475e-06
4.8180522e-06
5.8309776e-06
7.0542464e-06
8.4287023e-06
3.2569673e-05
1.7481758e-05
1.176414e-05
8.7927146e-06
6.9193823e-06
5.6480993e-06
4.7444497e-06
4.0757763e-06
3.5649309e-06
3.1651867e-06
2.8464093e-06
2.5880798e-06
2.3757167e-06
2.1988662e-06
2.0498857e-06
1.9230988e-06
1.8142688e-06
1.720187e-06
1.6384212e-06
1.5671267e-06
1.50491e-06
1.4507382e-06
1.4038546e-06
1.3637316e-06
1.3300316e-06
1.3025887e-06
1.281421e-06
1.2666565e-06
1.2586502e-06
1.2580911e-06
1.2657694e-06
1.282867e-06
1.3111208e-06
1.3527293e-06
1.4106283e-06
1.4889363e-06
1.5928367e-06
1.7295218e-06
1.9083833e-06
2.1418438e-06
2.4461301e-06
2.8419578e-06
3.3548677e-06
4.014602e-06
4.8528653e-06
5.8971775e-06
7.1732715e-06
8.624177e-06
2.8657988e-05
1.7085779e-05
1.1670927e-05
8.7698756e-06
6.9182933e-06
5.6541024e-06
4.7525995e-06
4.0842806e-06
3.5731278e-06
3.1728442e-06
2.853463e-06
2.5945296e-06
2.3815871e-06
2.2041916e-06
2.0547034e-06
1.9274466e-06
1.8181839e-06
1.7237049e-06
1.641576e-06
1.5699495e-06
1.5074295e-06
1.4529801e-06
1.4058416e-06
1.3654835e-06
1.3315652e-06
1.3039173e-06
1.2825544e-06
1.2675996e-06
1.2594088e-06
1.2586644e-06
1.2661478e-06
1.2830428e-06
1.3110866e-06
1.3524729e-06
1.4101498e-06
1.4882509e-06
1.5919982e-06
1.7286638e-06
1.9077826e-06
2.1420507e-06
2.4481876e-06
2.8477823e-06
3.3678828e-06
4.0407142e-06
4.9017345e-06
5.9839123e-06
7.3217743e-06
8.8593474e-06
2.4731432e-05
1.6518364e-05
1.1519398e-05
8.7252383e-06
6.9089937e-06
5.6573137e-06
4.7603413e-06
4.0935292e-06
3.5826732e-06
3.182188e-06
2.8623971e-06
2.6029681e-06
2.3894978e-06
2.2115684e-06
2.0615541e-06
1.9337858e-06
1.8240313e-06
1.7290829e-06
1.6465085e-06
1.5744614e-06
1.5115455e-06
1.4567245e-06
1.409237e-06
1.3685505e-06
1.334322e-06
1.3063797e-06
1.2847347e-06
1.2695054e-06
1.2610484e-06
1.2600377e-06
1.2672435e-06
1.2838506e-06
1.3115942e-06
1.352659e-06
1.4100039e-06
1.4877725e-06
1.5912247e-06
1.7277128e-06
1.9069225e-06
2.1418438e-06
2.4497346e-06
2.8531474e-06
3.3808004e-06
4.0676715e-06
4.953306e-06
6.0764385e-06
7.4807591e-06
9.1109087e-06
2.1073885e-05
1.5768743e-05
1.1295031e-05
8.6513147e-06
6.8882212e-06
5.6564748e-06
4.7673717e-06
4.1037035e-06
3.5940033e-06
3.193784e-06
2.8738343e-06
2.6140301e-06
2.4000689e-06
2.2215878e-06
2.0709926e-06
1.9426341e-06
1.8322941e-06
1.7367738e-06
1.653648e-06
1.5810739e-06
1.5176577e-06
1.4623637e-06
1.4144298e-06
1.3733222e-06
1.3386953e-06
1.310375e-06
1.288369e-06
1.2727898e-06
1.2639948e-06
1.2626482e-06
1.2695067e-06
1.2857557e-06
1.3131286e-06
1.3537988e-06
1.4107382e-06
1.4881012e-06
1.591194e-06
1.7274645e-06
1.9067801e-06
2.1424865e-06
2.4524946e-06
2.8605301e-06
3.3973493e-06
4.1012907e-06
5.0168576e-06
6.1896627e-06
7.6739435e-06
9.4147567e-06
1.7862091e-05
1.4854057e-05
1.0988087e-05
8.5407711e-06
6.8522091e-06
5.6498918e-06
4.7730768e-06
4.1147759e-06
3.607428e-06
3.2081418e-06
2.8884016e-06
2.6284084e-06
2.4140256e-06
2.2349838e-06
2.0837463e-06
1.9547006e-06
1.8436545e-06
1.7474273e-06
1.6636071e-06
1.5903594e-06
1.5262961e-06
1.4703847e-06
1.4218634e-06
1.3801981e-06
1.3450413e-06
1.3162167e-06
1.2937282e-06
1.2776823e-06
1.2684367e-06
1.2666438e-06
1.2730444e-06
1.288823e-06
1.3157097e-06
1.3558627e-06
1.4122658e-06
1.4890825e-06
1.5916698e-06
1.7275814e-06
1.9068928e-06
2.1433638e-06
2.4556753e-06
2.8689555e-06
3.4164269e-06
4.14054e-06
5.0919013e-06
6.3245333e-06
7.9051592e-06
9.7800013e-06
1.5163761e-05
1.3823328e-05
1.0599088e-05
8.3886959e-06
6.7974233e-06
5.6356483e-06
4.7765962e-06
4.1265417e-06
3.6231562e-06
3.2257307e-06
2.906726e-06
2.6468179e-06
2.4321233e-06
2.2525207e-06
2.100567e-06
1.9707103e-06
1.8588023e-06
1.7616932e-06
1.6769932e-06
1.6028832e-06
1.5379852e-06
1.4812724e-06
1.4319856e-06
1.3895916e-06
1.3537417e-06
1.3242568e-06
1.3011368e-06
1.28448e-06
1.2746437e-06
1.2722663e-06
1.2780695e-06
1.293237e-06
1.319495e-06
1.3589819e-06
1.4146931e-06
1.4907974e-06
1.5927066e-06
1.7280899e-06
1.9072592e-06
2.1444522e-06
2.4592571e-06
2.8784857e-06
3.4383725e-06
4.1864868e-06
5.181183e-06
6.4872762e-06
8.1871321e-06
1.0230306e-05
1.2977719e-05
1.2754514e-05
1.0145101e-05
8.1961185e-06
6.7219857e-06
5.6120616e-06
4.7768901e-06
4.1385429e-06
3.6411752e-06
3.2468503e-06
2.9293113e-06
2.6698866e-06
2.4550579e-06
2.2749236e-06
2.1221821e-06
1.9913751e-06
1.8784224e-06
1.7802217e-06
1.6944184e-06
1.6192174e-06
1.5532563e-06
1.4955185e-06
1.4452483e-06
1.4019147e-06
1.3651686e-06
1.3348318e-06
1.3109011e-06
1.2934651e-06
1.2828777e-06
1.2797565e-06
1.2847972e-06
1.2991782e-06
1.3246208e-06
1.3632396e-06
1.4180405e-06
1.4931934e-06
1.5941661e-06
1.7287462e-06
1.907499e-06
2.1451919e-06
2.4624458e-06
2.8880407e-06
3.4618229e-06
4.2376712e-06
5.2837934e-06
6.6790765e-06
8.5260659e-06
1.0782119e-05
1.1255451e-05
1.1730365e-05
9.6580289e-06
7.9717381e-06
6.6268626e-06
5.5782025e-06
4.7729042e-06
4.1500725e-06
3.6611891e-06
3.2715461e-06
2.9564467e-06
2.6980627e-06
2.4833731e-06
2.3027858e-06
2.1492031e-06
2.0173027e-06
1.9031039e-06
1.803575e-06
1.7164127e-06
1.6398571e-06
1.5725688e-06
1.513548e-06
1.4620489e-06
1.4175412e-06
1.3796653e-06
1.3482399e-06
1.3232628e-06
1.3048196e-06
1.2932713e-06
1.2892209e-06
1.2933357e-06
1.3067743e-06
1.3312405e-06
1.3688075e-06
1.4224834e-06
1.4964289e-06
1.5961643e-06
1.729592e-06
1.907537e-06
2.145328e-06
2.4647187e-06
2.89672e-06
3.485405e-06
4.292303e-06
5.3980964e-06
6.9002081e-06
8.9279282e-06
1.1454742e-05
9.9355221e-06
1.0818874e-05
9.1774165e-06
7.7310065e-06
6.5160788e-06
5.5339925e-06
4.7635117e-06
4.1600491e-06
3.6824619e-06
3.2994351e-06
2.9880271e-06
2.7314377e-06
2.5172896e-06
2.3364071e-06
2.181973e-06
2.0488543e-06
1.9332099e-06
1.8321072e-06
1.7433142e-06
1.665124e-06
1.5962284e-06
1.535632e-06
1.4826053e-06
1.4366651e-06
1.3974515e-06
1.3647623e-06
1.3385686e-06
1.3189253e-06
1.3061469e-06
1.3008356e-06
1.3036852e-06
1.3158721e-06
1.3390951e-06
1.3753657e-06
1.4276718e-06
1.500132e-06
1.5982926e-06
1.7301417e-06
1.9067384e-06
2.1439617e-06
2.4647367e-06
2.9024863e-06
3.506042e-06
4.3459323e-06
5.5182997e-06
7.1447635e-06
9.3903919e-06
1.2258228e-05
8.9578624e-06
1.0065166e-05
8.7419027e-06
7.4931984e-06
6.3962037e-06
5.4802746e-06
4.747649e-06
4.1671224e-06
3.7038783e-06
3.3297175e-06
3.0235206e-06
2.7696824e-06
2.5566243e-06
2.3757037e-06
2.2204732e-06
2.0860522e-06
1.9687867e-06
1.865879e-06
1.7751915e-06
1.6950659e-06
1.624289e-06
1.5619427e-06
1.5072455e-06
1.4595783e-06
1.4186574e-06
1.384341e-06
1.3566258e-06
1.335581e-06
1.3216348e-06
1.3151813e-06
1.3166723e-06
1.3273505e-06
1.348976e-06
1.3835637e-06
1.434118e-06
1.50471e-06
1.600888e-06
1.7306745e-06
1.9052927e-06
2.1410932e-06
2.4621108e-06
2.9042087e-06
3.521293e-06
4.3940187e-06
5.6370469e-06
7.4028184e-06
9.9038306e-06
1.3194565e-05
8.2706792e-06
9.4908914e-06
8.3802655e-06
7.27543e-06
6.273502e-06
5.4176457e-06
4.7239248e-06
4.1695769e-06
3.7239143e-06
3.3611399e-06
3.0619149e-06
2.8119779e-06
2.6007057e-06
2.4201156e-06
2.2642268e-06
2.1284827e-06
2.0094706e-06
1.9045518e-06
1.8117488e-06
1.7295944e-06
1.6566703e-06
1.5920739e-06
1.5352454e-06
1.4857001e-06
1.4430213e-06
1.4070164e-06
1.3776884e-06
1.3550483e-06
1.3394059e-06
1.3313109e-06
1.3313553e-06
1.3408064e-06
1.361072e-06
1.3939854e-06
1.442587e-06
1.5109647e-06
1.6047042e-06
1.7318538e-06
1.903715e-06
2.1369571e-06
2.4565154e-06
2.9004641e-06
3.5276728e-06
4.4293984e-06
5.7411131e-06
7.6523022e-06
1.0435339e-05
1.4225429e-05
7.8330896e-06
9.100839e-06
8.1086603e-06
7.0885492e-06
6.1515071e-06
5.3456441e-06
4.690698e-06
4.1657103e-06
3.7410226e-06
3.3923026e-06
3.1019415e-06
2.8571778e-06
2.6484929e-06
2.4686895e-06
2.3123558e-06
2.1753306e-06
2.0545093e-06
1.9475645e-06
1.8524486e-06
1.7677393e-06
1.6925448e-06
1.6258242e-06
1.5668443e-06
1.5152289e-06
1.470615e-06
1.4327841e-06
1.4017243e-06
1.377463e-06
1.3601774e-06
1.3503897e-06
1.3486649e-06
1.3561301e-06
1.3745486e-06
1.4057483e-06
1.4525684e-06
1.518667e-06
1.6095916e-06
1.7334196e-06
1.901452e-06
2.1304632e-06
2.4458937e-06
2.8874077e-06
3.5179881e-06
4.43866e-06
5.8058646e-06
7.8488535e-06
1.0906915e-05
1.522682e-05
7.6165326e-06
8.8898655e-06
7.9305602e-06
6.9340549e-06
6.028525e-06
5.2617752e-06
4.6460321e-06
4.1540592e-06
3.7538604e-06
3.4218445e-06
3.142229e-06
2.9039278e-06
2.6986723e-06
2.5201621e-06
2.3636498e-06
2.22553e-06
2.1029454e-06
1.993641e-06
1.8962399e-06
1.8091596e-06
1.7314344e-06
1.6623249e-06
1.60107e-06
1.547129e-06
1.5002145e-06
1.4601837e-06
1.4270674e-06
1.4009285e-06
1.3820229e-06
1.3706665e-06
1.3672338e-06
1.3728413e-06
1.3892026e-06
1.418033e-06
1.4623188e-06
1.5258916e-06
1.6139478e-06
1.7340099e-06
1.8972121e-06
2.1201858e-06
2.4284284e-06
2.862378e-06
3.487821e-06
4.4137867e-06
5.8160323e-06
7.9627217e-06
1.1258836e-05
1.6073253e-05
7.6012257e-06
8.8479819e-06
7.8396667e-06
6.8046114e-06
5.8981923e-06
5.1627018e-06
4.5888657e-06
4.1342701e-06
3.7619251e-06
3.4489531e-06
3.1817354e-06
2.9510433e-06
2.7499613e-06
2.5732544e-06
2.4169615e-06
2.2777137e-06
2.1534092e-06
2.0420856e-06
1.9421489e-06
1.8525754e-06
1.7722226e-06
1.7003819e-06
1.6364981e-06
1.5801092e-06
1.5308993e-06
1.4886935e-06
1.4535131e-06
1.4254373e-06
1.4047018e-06
1.3914534e-06
1.3861002e-06
1.3900502e-06
1.4046939e-06
1.4314909e-06
1.4732439e-06
1.5336216e-06
1.6180202e-06
1.7342326e-06
1.8922162e-06
2.1079297e-06
2.4064349e-06
2.8280834e-06
3.4399701e-06
4.3570114e-06
5.7722115e-06
7.990202e-06
1.1471546e-05
1.6685579e-05
7.7749943e-06
8.9625215e-06
7.8215034e-06
6.6848013e-06
5.7511198e-06
5.045884e-06
4.519833e-06
4.1073412e-06
3.7656083e-06
3.4734307e-06
3.219829e-06
2.9976004e-06
2.8014006e-06
2.6267431e-06
2.4707272e-06
2.3309305e-06
2.2049718e-06
2.0914479e-06
1.9889736e-06
1.8965729e-06
1.8135242e-06
1.73916e-06
1.6728606e-06
1.6141285e-06
1.5626316e-06
1.5182026e-06
1.4808862e-06
1.4508404e-06
1.428337e-06
1.4132237e-06
1.4058517e-06
1.4077981e-06
1.4204757e-06
1.4451811e-06
1.4847591e-06
1.5423972e-06
1.6232023e-06
1.7342134e-06
1.8861474e-06
2.0938659e-06
2.3807145e-06
2.7860138e-06
3.376653e-06
4.2714907e-06
5.6794021e-06
7.9394967e-06
1.1551039e-05
1.7032661e-05
8.1326223e-06
9.2230214e-06
7.8579742e-06
6.5559124e-06
5.5795595e-06
4.9121413e-06
4.4421233e-06
4.0757138e-06
3.7661494e-06
3.4956311e-06
3.2564433e-06
3.0430171e-06
2.8517352e-06
2.6799641e-06
2.5246009e-06
2.3839012e-06
2.2563066e-06
2.140398e-06
2.0353996e-06
1.9405217e-06
1.8549962e-06
1.7781553e-06
1.7094138e-06
1.6483115e-06
1.5945207e-06
1.5478757e-06
1.5084202e-06
1.4764221e-06
1.4522568e-06
1.4353019e-06
1.4259157e-06
1.4260192e-06
1.4368126e-06
1.4591438e-06
1.4964639e-06
1.5514426e-06
1.6289008e-06
1.7358484e-06
1.8814716e-06
2.0799389e-06
2.3541585e-06
2.7406046e-06
3.3044877e-06
4.1672528e-06
5.5543808e-06
7.8412279e-06
1.154604e-05
1.7175185e-05
8.6625409e-06
9.6163378e-06
7.9251893e-06
6.3991551e-06
5.3811401e-06
4.7667791e-06
4.3612282e-06
4.0428068e-06
3.7653861e-06
3.5166032e-06
3.2913808e-06
3.0875725e-06
2.9017033e-06
2.7320764e-06
2.5772321e-06
2.4355174e-06
2.3061408e-06
2.188259e-06
2.0810463e-06
1.9837695e-06
1.8958006e-06
1.8165478e-06
1.7454631e-06
1.6821049e-06
1.6261336e-06
1.5773754e-06
1.5358385e-06
1.5019411e-06
1.4762948e-06
1.4575654e-06
1.4461754e-06
1.4445548e-06
1.4536362e-06
1.4737049e-06
1.5089491e-06
1.5609243e-06
1.6350679e-06
1.7383766e-06
1.8784443e-06
2.0681695e-06
2.3282631e-06
2.6943361e-06
3.2275874e-06
4.050947e-06
5.4088142e-06
7.7187282e-06
1.1494327e-05
1.7168753e-05
9.3531294e-06
1.01362e-05
7.998573e-06
6.203112e-06
5.1617115e-06
4.6187188e-06
4.2831276e-06
4.0115732e-06
3.7649919e-06
3.5368872e-06
3.326367e-06
3.1308733e-06
2.9497819e-06
2.7820026e-06
2.6272161e-06
2.4848644e-06
2.3541994e-06
2.2344827e-06
2.1250954e-06
2.0254931e-06
1.9352088e-06
1.8536953e-06
1.7804208e-06
1.7149535e-06
1.6569376e-06
1.6061985e-06
1.5626651e-06
1.5269319e-06
1.5000287e-06
1.4796109e-06
1.4662502e-06
1.4630698e-06
1.4706224e-06
1.4884094e-06
1.5219419e-06
1.571117e-06
1.6420723e-06
1.7412215e-06
1.8759368e-06
2.0576795e-06
2.3044664e-06
2.6491106e-06
3.1490643e-06
3.9274928e-06
5.2511154e-06
7.5906901e-06
1.1422086e-05
1.703316e-05
1.0182666e-05
1.0773442e-05
8.0486673e-06
5.9664745e-06
4.9332761e-06
4.4779392e-06
4.2130106e-06
3.9846044e-06
3.7654733e-06
3.5581155e-06
3.3605661e-06
3.1723268e-06
2.994906e-06
2.8291931e-06
2.6749826e-06
2.5320916e-06
2.4000788e-06
2.2785292e-06
2.1670546e-06
2.0652578e-06
1.9728119e-06
1.8891898e-06
1.8138751e-06
1.7464497e-06
1.686538e-06
1.6339796e-06
1.5885674e-06
1.551073e-06
1.5231736e-06
1.5011723e-06
1.4859029e-06
1.4813592e-06
1.4875994e-06
1.5030804e-06
1.5353039e-06
1.5816895e-06
1.6497657e-06
1.7453816e-06
1.8745248e-06
2.0480001e-06
2.2828592e-06
2.6045026e-06
3.0686034e-06
3.7968414e-06
5.0817189e-06
7.4623676e-06
1.1326933e-05
1.6724902e-05
1.1118692e-05
1.152968e-05
8.0556946e-06
5.7028098e-06
4.7108418e-06
4.352026e-06
4.1532799e-06
3.9614773e-06
3.7693681e-06
3.5800496e-06
3.3928558e-06
3.2113018e-06
3.0377545e-06
2.8738937e-06
2.7198954e-06
2.5762874e-06
2.4429191e-06
2.3196569e-06
2.2062713e-06
2.1024642e-06
2.0080521e-06
1.922512e-06
1.8453451e-06
1.7761495e-06
1.7145211e-06
1.6603365e-06
1.6131956e-06
1.5740219e-06
1.5453983e-06
1.5219261e-06
1.5048324e-06
1.4991273e-06
1.5042793e-06
1.5174188e-06
1.5487721e-06
1.5923509e-06
1.6578653e-06
1.7502741e-06
1.8742961e-06
2.0396728e-06
2.2616638e-06
2.5633079e-06
2.991233e-06
3.6671801e-06
4.9134334e-06
7.3591089e-06
1.1233055e-05
1.6249363e-05
1.210348e-05
1.2365195e-05
7.9962506e-06
5.4296228e-06
4.50658e-06
4.2454504e-06
4.1046192e-06
3.9439893e-06
3.7762219e-06
3.6014505e-06
3.4240663e-06
3.2483643e-06
3.0778305e-06
2.9153567e-06
2.7614087e-06
2.6171563e-06
2.4825635e-06
2.3577407e-06
2.2425997e-06
2.1369314e-06
2.0407175e-06
1.953427e-06
1.874581e-06
1.8037938e-06
1.740621e-06
1.6850018e-06
1.6362945e-06
1.5955228e-06
1.5664219e-06
1.5415873e-06
1.5227657e-06
1.5160762e-06
1.5203413e-06
1.5310907e-06
1.5619851e-06
1.6026904e-06
1.6659404e-06
1.7553989e-06
1.8745624e-06
2.0324093e-06
2.2418517e-06
2.5244278e-06
2.9157755e-06
3.5388218e-06
4.7481905e-06
7.286551e-06
1.1126114e-05
1.5588506e-05
1.3112131e-05
1.3281252e-05
7.8797879e-06
5.1676277e-06
4.3277152e-06
4.1586259e-06
4.0649449e-06
3.9333438e-06
3.7841616e-06
3.6227196e-06
3.4536256e-06
3.2827265e-06
3.1145945e-06
2.953199e-06
2.7990969e-06
2.6541672e-06
2.5184193e-06
2.3922008e-06
2.2755239e-06
2.1682254e-06
2.0704469e-06
1.9816269e-06
1.9013093e-06
1.8291293e-06
1.7645958e-06
1.7077397e-06
1.6576473e-06
1.6153754e-06
1.5860217e-06
1.5599522e-06
1.5395346e-06
1.5320351e-06
1.5356202e-06
1.5439802e-06
1.5748075e-06
1.6125997e-06
1.6738941e-06
1.7606213e-06
1.8751616e-06
2.0258796e-06
2.2235654e-06
2.4857157e-06
2.8393797e-06
3.4073482e-06
4.578186e-06
7.2270664e-06
1.0958602e-05
1.4705132e-05
1.4125995e-05
1.4248395e-05
7.7236047e-06
4.9306492e-06
4.1762753e-06
4.0893689e-06
4.0295405e-06
3.923022e-06
3.7917426e-06
3.6420265e-06
3.479964e-06
3.3133084e-06
3.1475334e-06
2.9874219e-06
2.8332279e-06
2.687518e-06
2.550392e-06
2.4225536e-06
2.3041719e-06
2.1951485e-06
2.0957949e-06
2.0055002e-06
1.9238199e-06
1.8503989e-06
1.7846808e-06
1.7267991e-06
1.6755502e-06
1.631945e-06
1.6025457e-06
1.575411e-06
1.5535808e-06
1.5454172e-06
1.5484656e-06
1.5544342e-06
1.5854055e-06
1.6201891e-06
1.6796967e-06
1.7637501e-06
1.8738123e-06
2.0178238e-06
2.2045661e-06
2.4473236e-06
2.7674376e-06
3.2879259e-06
4.4414266e-06
7.2268031e-06
1.074463e-05
1.3709635e-05
1.5016328e-05
1.5095494e-05
7.5266951e-06
4.7166746e-06
4.043382e-06
4.0269692e-06
3.9955785e-06
3.9074451e-06
3.7909431e-06
3.6508361e-06
3.4944263e-06
3.3299268e-06
3.1640741e-06
3.0036182e-06
2.8489844e-06
2.7034901e-06
2.5670904e-06
2.4407171e-06
2.3246044e-06
2.2186064e-06
2.1230497e-06
2.0370783e-06
1.960043e-06
1.8913764e-06
1.8302404e-06
1.7767217e-06
1.7291729e-06
1.6884154e-06
1.662898e-06
1.6379339e-06
1.6173561e-06
1.6110764e-06
1.6161333e-06
1.6217111e-06
1.6558738e-06
1.6901965e-06
1.7515759e-06
1.8373308e-06
1.948195e-06
2.0923095e-06
2.2776305e-06
2.5146317e-06
2.8217428e-06
3.4411667e-06
5.0175707e-06
8.5683526e-06
1.2497295e-05
1.5384969e-05
1.5855854e-05
1.5965374e-05
7.3166683e-06
4.4916209e-06
3.8761616e-06
3.9098617e-06
3.9007166e-06
3.8301683e-06
3.7264573e-06
3.5951354e-06
3.4487903e-06
3.3012753e-06
3.1605076e-06
3.0373608e-06
2.93571e-06
2.8617592e-06
2.8150671e-06
2.7943514e-06
2.7958179e-06
2.814241e-06
2.8450024e-06
2.8820461e-06
2.9203796e-06
2.9561562e-06
2.9858946e-06
3.0093355e-06
3.0228619e-06
3.028016e-06
3.0499033e-06
3.0550269e-06
3.0542187e-06
3.074256e-06
3.1107196e-06
3.1369548e-06
3.2307736e-06
3.314338e-06
3.4680206e-06
3.6812513e-06
3.9644753e-06
4.3467471e-06
4.8590824e-06
5.5653494e-06
6.5617203e-06
9.5441308e-06
1.7644717e-05
3.2410757e-05
4.4084562e-05
4.3539211e-05
1.6639755e-05
1.6520865e-05
6.9304119e-06
4.0732271e-06
3.4688695e-06
3.5086068e-06
3.5101068e-06
3.4768769e-06
3.4452924e-06
3.4437523e-06
3.5194435e-06
3.7282249e-06
4.1019718e-06
4.6530159e-06
5.3692434e-06
6.2344737e-06
7.2191394e-06
8.2914732e-06
9.4150808e-06
1.0551252e-05
1.1665272e-05
1.2721204e-05
1.3692674e-05
1.4563178e-05
1.5323031e-05
1.5979986e-05
1.6523286e-05
1.6981162e-05
1.749524e-05
1.7871903e-05
1.8212343e-05
1.8681048e-05
1.9231396e-05
1.9743003e-05
2.0744993e-05
2.1675653e-05
2.3221865e-05
2.5232642e-05
2.7875118e-05
3.1511295e-05
3.6753511e-05
4.3948561e-05
4.8098629e-05
4.8155526e-05
4.5441713e-05
4.6049842e-05
4.4614541e-05
4.4188546e-05
1.7139881e-05
1.5342802e-05
5.6786265e-06
2.978746e-06
2.4457137e-06
2.4616226e-06
2.5453428e-06
2.8039076e-06
3.377706e-06
4.3639142e-06
5.7981907e-06
7.6762595e-06
9.9925826e-06
1.2719322e-05
1.5803513e-05
1.9171516e-05
2.2731798e-05
2.6389281e-05
3.0057638e-05
3.3663897e-05
3.7157366e-05
4.0501084e-05
4.3682307e-05
4.6704985e-05
4.9581936e-05
5.2338791e-05
5.4964704e-05
5.7538669e-05
6.0164014e-05
6.2527704e-05
6.4894407e-05
6.7392123e-05
6.9738274e-05
7.196976e-05
7.4257363e-05
7.5814103e-05
7.6470582e-05
7.4785878e-05
6.9233326e-05
6.1680192e-05
6.1941778e-05
5.9058215e-05
5.3302854e-05
4.8049496e-05
6.9035431e-05
7.6497353e-05
7.7885113e-05
8.0545617e-05
1.6695473e-05
8.9558806e-06
2.7414949e-06
1.4149859e-06
1.3610977e-06
1.6543476e-06
2.4356243e-06
3.9993846e-06
6.4906024e-06
9.9600059e-06
1.4385636e-05
1.9610615e-05
2.5377824e-05
3.1368398e-05
3.7296754e-05
4.2960508e-05
4.8246999e-05
5.3121263e-05
5.7611044e-05
6.1776572e-05
6.5703845e-05
6.9477289e-05
7.3176394e-05
7.6861935e-05
8.056054e-05
8.4279418e-05
8.7972777e-05
9.157554e-05
9.5099038e-05
9.8311227e-05
0.00010118404
0.0001036325
0.00010555314
0.00010670211
0.00010714683
0.00010682831
0.00010554183
0.00010390436
0.00010201195
0.00010036218
9.9483291e-05
0.00010001488
0.00010399648
0.00011739366
0.00013717717
0.0001512427
0.00016240443
0.00017459849
1.1305742e-05
2.4222868e-06
8.6637417e-07
6.3576351e-07
1.1663754e-06
2.3330448e-06
5.0349869e-06
9.6503429e-06
1.6168548e-05
2.4078246e-05
3.2592848e-05
4.0929654e-05
4.8580331e-05
5.5296553e-05
6.1052152e-05
6.5958033e-05
7.0188631e-05
7.3946407e-05
7.7435433e-05
8.0836943e-05
8.4312737e-05
8.7982047e-05
9.1920245e-05
9.6157084e-05
0.00010067204
0.00010542603
0.00011033423
0.00011526192
0.00012026099
0.00012511118
0.000129748
0.00013416514
0.00013834547
0.00014204464
0.00014561774
0.00014881379
0.00015189076
0.00015509385
0.00015860654
0.00016281032
0.00016812193
0.00017518599
0.00018611244
0.0002043916
0.00022842546
0.00025114489
0.00027326742
0.00029516386
3.615317e-06
6.6507588e-07
3.316122e-07
4.3026688e-07
1.735491e-06
5.0232613e-06
1.1553299e-05
2.0920213e-05
3.1559231e-05
4.1799859e-05
5.0687207e-05
5.7905988e-05
6.358735e-05
6.8025367e-05
7.1590591e-05
7.4638335e-05
7.7465398e-05
8.0317786e-05
8.3384562e-05
8.6807451e-05
9.0694975e-05
9.5106723e-05
0.00010005712
0.0001055239
0.00011144948
0.00011777186
0.00012439895
0.0001311953
0.000138227
0.00014531376
0.00015240587
0.00015950787
0.00016660063
0.00017348185
0.00018051066
0.0001873989
0.00019450961
0.00020195157
0.00020996209
0.00021888258
0.00022913747
0.00024138307
0.00025720566
0.00027818263
0.00030397337
0.00033136987
0.00035983746
0.00038756512
9.0979628e-07
2.3530831e-07
1.7685582e-07
4.1623135e-07
2.9736327e-06
9.663609e-06
2.0177826e-05
3.1849653e-05
4.2314828e-05
5.0513056e-05
5.6463338e-05
6.0638474e-05
6.3664488e-05
6.6062904e-05
6.825924e-05
7.0554161e-05
7.3147152e-05
7.6178758e-05
7.9738861e-05
8.388769e-05
8.8664956e-05
9.4078378e-05
0.00010010889
0.00010671781
0.00011384556
0.00012143606
0.00012941647
0.00013767767
0.00014628436
0.00015512486
0.0001641489
0.00017332807
0.00018264244
0.00019193691
0.00020146186
0.00021100576
0.00022085302
0.000231082
0.00024192684
0.00025366829
0.00026665888
0.00028141454
0.00029886891
0.00031968044
0.00034449488
0.0003729012
0.00040354833
0.00043366388
2.7449556e-07
1.0682183e-07
1.2190343e-07
4.5302799e-07
4.527223e-06
1.3716631e-05
2.4958159e-05
3.4925892e-05
4.222677e-05
4.7003497e-05
5.0060959e-05
5.2159292e-05
5.3906208e-05
5.5671245e-05
5.7711558e-05
6.0177509e-05
6.3158155e-05
6.6706965e-05
7.0853462e-05
7.5614103e-05
8.0995457e-05
8.6989164e-05
9.357538e-05
0.00010072433
0.00010839282
0.00011654421
0.00012513571
0.00013408899
0.00014346204
0.00015320533
0.00016324774
0.00017352009
0.00018401476
0.00019461046
0.0002054264
0.00021635987
0.0002275572
0.00023910163
0.00025119292
0.00026403222
0.00027787276
0.00029306313
0.00031003732
0.00032905858
0.00035153174
0.00037885365
0.00040898136
0.00043877857
1.0106622e-07
5.7742005e-08
9.2182658e-08
4.5323642e-07
5.2206833e-06
1.4138284e-05
2.3054701e-05
2.9543852e-05
3.3577599e-05
3.5994488e-05
3.7640226e-05
3.9052982e-05
4.0587601e-05
4.241532e-05
4.4658377e-05
4.73818e-05
5.0625518e-05
5.4408446e-05
5.8742923e-05
6.3631836e-05
6.907482e-05
7.5068337e-05
8.1607369e-05
8.8678825e-05
9.62556e-05
0.00010432075
0.00011285929
0.00012181584
0.00013123822
0.00014111215
0.00015134057
0.00016183294
0.0001725966
0.00018352064
0.00019462309
0.0002058896
0.00021733715
0.0002290641
0.00024122007
0.00025392752
0.00026734862
0.00028169617
0.0002970823
0.00031360503
0.00033317537
0.00035815457
0.00038579209
0.00041311731
4.2960043e-08
3.3025361e-08
6.4916834e-08
3.6111362e-07
4.2991444e-06
1.0853094e-05
1.6393273e-05
1.9884983e-05
2.195262e-05
2.3328769e-05
2.451629e-05
2.578183e-05
2.7293491e-05
2.9125868e-05
3.1343652e-05
3.3986112e-05
3.7081137e-05
4.0641562e-05
4.4681193e-05
4.9206759e-05
5.4224993e-05
5.9743748e-05
6.5770783e-05
7.2302395e-05
7.9323579e-05
8.6830449e-05
9.4825011e-05
0.0001032659
0.00011218718
0.00012158858
0.00013135821
0.00014140675
0.00015174218
0.00016225021
0.00017289472
0.00018370779
0.0001946145
0.00020572625
0.00021713018
0.00022888548
0.00024108686
0.00025384227
0.00026707593
0.00028079552
0.00029719852
0.00031890649
0.00034247145
0.00036568343
1.9565953e-08
1.7676817e-08
3.7903697e-08
2.1655226e-07
2.5676555e-06
6.2435239e-06
9.0163771e-06
1.0711309e-05
1.1823626e-05
1.2718313e-05
1.3627255e-05
1.4672447e-05
1.5934025e-05
1.7456448e-05
1.9284278e-05
2.1452619e-05
2.3989636e-05
2.6915007e-05
3.0249865e-05
3.4011928e-05
3.8218593e-05
4.2886378e-05
4.8032058e-05
5.3658254e-05
5.97559e-05
6.63273e-05
7.3376793e-05
8.0879926e-05
8.8866554e-05
9.7323532e-05
0.00010613795
0.00011523208
0.00012460602
0.00013413962
0.00014377889
0.00015356347
0.00016336775
0.0001733062
0.00018339971
0.00019366195
0.00020413975
0.0002148696
0.00022568394
0.00023653592
0.00024963555
0.00026728247
0.00028566853
0.00030368827
8.9082394e-09
8.0438474e-09
1.7276582e-08
9.6570812e-08
1.0874507e-06
2.5686093e-06
3.6942308e-06
4.4744412e-06
5.0872107e-06
5.6047007e-06
6.1684069e-06
6.8370916e-06
7.6521388e-06
8.6456861e-06
9.8518728e-06
1.1299407e-05
1.3014699e-05
1.5030988e-05
1.7378713e-05
2.0085739e-05
2.3179399e-05
2.6685024e-05
3.0627584e-05
3.5019173e-05
3.9860366e-05
4.5159323e-05
5.0921677e-05
5.7132672e-05
6.3811717e-05
7.0922375e-05
7.8373625e-05
8.610549e-05
9.4093357e-05
0.00010221733
0.00011042431
0.00011873974
0.00012702483
0.00013537353
0.00014376697
0.00015217796
0.00016061909
0.00016908753
0.00017739085
0.00018546052
0.0001952059
0.00020825746
0.00022095899
0.00023343238
3.8697019e-09
2.71742e-09
4.8329619e-09
2.2667933e-08
2.3607315e-07
5.8168337e-07
8.9287601e-07
1.1566611e-06
1.4024292e-06
1.6534824e-06
1.9379546e-06
2.2777637e-06
2.6928506e-06
3.2028737e-06
3.8297351e-06
4.5748449e-06
5.4534328e-06
6.5250108e-06
7.8223415e-06
9.378122e-06
1.1225831e-05
1.339795e-05
1.591954e-05
1.8810133e-05
2.2094955e-05
2.5795283e-05
2.9929206e-05
3.4496483e-05
3.950783e-05
4.4928328e-05
5.0699676e-05