/*--------------------------------*- C++ -*----------------------------------*\
| =========                 |                                                 |
| \\      /  F ield         | OpenFOAM: The Open Source CFD Toolbox           |
|  \\    /   O peration     | Version:  2212                                  |
|   \\  /    A nd           | Website:  www.openfoam.com                      |
|    \\/     M anipulation  |                                                 |
\*---------------------------------------------------------------------------*/
FoamFile
{
    version     2.0;
    format      ascii;
    arch        "LSB;label=32;scalar=64";
    class       volScalarField;
    location    "0";
    object      Cx;
}
// * * * * * * * * * * * * * * * * * * * * * * * * * * * * * * * * * * * * * //

dimensions      [0 1 0 0 0 0 0];

internalField   nonuniform List<scalar> 
18080
(
-0.193997
-0.18883
-0.183572
-0.178233
-0.172826
-0.167358
-0.161841
-0.156286
-0.150706
-0.145111
-0.139515
-0.133929
-0.128366
-0.122838
-0.117356
-0.111931
-0.106576
-0.101298
-0.0961088
-0.0910165
-0.0860293
-0.0811544
-0.0763986
-0.0717674
-0.0672659
-0.062898
-0.0586671
-0.0545758
-0.0506256
-0.0468179
-0.043153
-0.0396305
-0.0362497
-0.0330094
-0.0299075
-0.026942
-0.02411
-0.0214086
-0.0188346
-0.0163845
-0.0140545
-0.0118407
-0.00973927
-0.00774606
-0.0058571
-0.00406839
-0.00237549
-0.000774331
-0.193998
-0.188831
-0.183573
-0.178234
-0.172826
-0.167358
-0.16184
-0.156285
-0.150704
-0.145109
-0.139512
-0.133927
-0.128364
-0.122836
-0.117355
-0.111931
-0.106576
-0.101299
-0.0961109
-0.0910196
-0.0860333
-0.0811594
-0.0764044
-0.071774
-0.0672731
-0.0629058
-0.0586753
-0.0545841
-0.050634
-0.0468262
-0.0431611
-0.0396383
-0.036257
-0.0330162
-0.0299136
-0.0269475
-0.0241148
-0.0214128
-0.0188381
-0.0163873
-0.0140567
-0.0118424
-0.00974052
-0.00774692
-0.00585766
-0.00406873
-0.00237569
-0.000774455
-0.193999
-0.188832
-0.183574
-0.178234
-0.172826
-0.167357
-0.161839
-0.156283
-0.150701
-0.145106
-0.139509
-0.133923
-0.128361
-0.122833
-0.117353
-0.11193
-0.106576
-0.101301
-0.0961135
-0.0910234
-0.0860384
-0.0811657
-0.0764118
-0.0717824
-0.0672823
-0.0629157
-0.0586856
-0.0545948
-0.0506448
-0.0468368
-0.0431714
-0.0396481
-0.0362663
-0.0330248
-0.0299215
-0.0269544
-0.0241209
-0.021418
-0.0188425
-0.0163909
-0.0140595
-0.0118446
-0.00974208
-0.007748
-0.00585836
-0.00406915
-0.00237593
-0.000774604
-0.194001
-0.188833
-0.183575
-0.178235
-0.172826
-0.167356
-0.161837
-0.15628
-0.150698
-0.145102
-0.139505
-0.133919
-0.128357
-0.12283
-0.11735
-0.111929
-0.106576
-0.101302
-0.0961165
-0.091028
-0.0860444
-0.0811732
-0.0764206
-0.0717924
-0.0672933
-0.0629274
-0.0586979
-0.0546074
-0.0506575
-0.0468494
-0.0431836
-0.0396599
-0.0362774
-0.033035
-0.0299307
-0.0269627
-0.0241281
-0.0214242
-0.0188477
-0.0163951
-0.0140629
-0.0118471
-0.00974393
-0.00774927
-0.00585918
-0.00406963
-0.0023762
-0.000774774
-0.194002
-0.188835
-0.183576
-0.178235
-0.172825
-0.167354
-0.161834
-0.156276
-0.150693
-0.145096
-0.139499
-0.133914
-0.128352
-0.122826
-0.117347
-0.111927
-0.106576
-0.101304
-0.0961199
-0.0910332
-0.0860515
-0.081182
-0.076431
-0.0718042
-0.0673062
-0.0629412
-0.0587124
-0.0546223
-0.0506725
-0.0468642
-0.043198
-0.0396736
-0.0362903
-0.0330469
-0.0299416
-0.0269724
-0.0241366
-0.0214315
-0.0188537
-0.0164001
-0.0140668
-0.0118501
-0.00974607
-0.00775074
-0.00586012
-0.00407019
-0.00237652
-0.000774966
-0.194003
-0.188836
-0.183576
-0.178235
-0.172824
-0.167352
-0.16183
-0.156271
-0.150687
-0.14509
-0.139492
-0.133907
-0.128346
-0.122821
-0.117343
-0.111925
-0.106576
-0.101305
-0.0961238
-0.0910393
-0.0860597
-0.0811922
-0.0764431
-0.0718179
-0.0673213
-0.0629574
-0.0587294
-0.0546396
-0.0506899
-0.0468815
-0.0432148
-0.0396896
-0.0363054
-0.0330608
-0.0299542
-0.0269836
-0.0241464
-0.0214399
-0.0188608
-0.0164058
-0.0140713
-0.0118535
-0.00974855
-0.00775244
-0.00586121
-0.00407084
-0.00237687
-0.000775181
-0.194005
-0.188837
-0.183577
-0.178235
-0.172822
-0.167348
-0.161825
-0.156264
-0.150679
-0.145081
-0.139483
-0.133898
-0.128338
-0.122814
-0.117339
-0.111922
-0.106575
-0.101307
-0.0961282
-0.0910463
-0.0860693
-0.0812042
-0.0764572
-0.0718339
-0.0673389
-0.0629762
-0.058749
-0.0546598
-0.0507102
-0.0469015
-0.0432342
-0.0397082
-0.0363228
-0.0330769
-0.0299688
-0.0269966
-0.0241578
-0.0214495
-0.0188689
-0.0164123
-0.0140764
-0.0118574
-0.00975139
-0.00775438
-0.00586245
-0.00407157
-0.00237727
-0.000775423
-0.194006
-0.188838
-0.183577
-0.178234
-0.17282
-0.167344
-0.161818
-0.156256
-0.150669
-0.145071
-0.139473
-0.133888
-0.128329
-0.122806
-0.117333
-0.111918
-0.106574
-0.101309
-0.0961332
-0.0910544
-0.0860803
-0.0812179
-0.0764735
-0.0718524
-0.0673592
-0.0629979
-0.0587717
-0.054683
-0.0507335
-0.0469245
-0.0432565
-0.0397295
-0.0363427
-0.0330953
-0.0299855
-0.0270115
-0.0241707
-0.0214606
-0.0188781
-0.0164198
-0.0140823
-0.0118619
-0.00975462
-0.00775659
-0.00586385
-0.00407239
-0.00237773
-0.000775694
-0.194008
-0.188839
-0.183577
-0.178232
-0.172816
-0.167338
-0.16181
-0.156246
-0.150657
-0.145058
-0.13946
-0.133875
-0.128317
-0.122797
-0.117325
-0.111914
-0.106573
-0.101311
-0.0961389
-0.0910636
-0.0860929
-0.0812338
-0.0764922
-0.0718736
-0.0673825
-0.0630228
-0.0587976
-0.0547095
-0.0507601
-0.0469507
-0.0432819
-0.0397537
-0.0363654
-0.0331162
-0.0300044
-0.0270283
-0.0241854
-0.0214731
-0.0188885
-0.0164283
-0.014089
-0.0118669
-0.00975826
-0.00775907
-0.00586544
-0.00407332
-0.00237823
-0.000775996
-0.194009
-0.18884
-0.183577
-0.17823
-0.172811
-0.16733
-0.1618
-0.156233
-0.150643
-0.145042
-0.139444
-0.13386
-0.128303
-0.122785
-0.117317
-0.111908
-0.106571
-0.101314
-0.0961453
-0.091074
-0.0861072
-0.0812517
-0.0765135
-0.0718977
-0.0674089
-0.063051
-0.058827
-0.0547395
-0.0507902
-0.0469803
-0.0433106
-0.0397809
-0.0363909
-0.0331397
-0.0300257
-0.0270472
-0.0242018
-0.0214871
-0.0189002
-0.0164377
-0.0140964
-0.0118725
-0.00976232
-0.00776184
-0.00586719
-0.00407435
-0.00237879
-0.000776328
-0.194011
-0.188841
-0.183577
-0.178227
-0.172805
-0.167321
-0.161788
-0.156218
-0.150626
-0.145024
-0.139425
-0.133842
-0.128287
-0.122772
-0.117306
-0.111902
-0.106569
-0.101316
-0.0961524
-0.0910857
-0.0861234
-0.081272
-0.0765374
-0.0719247
-0.0674385
-0.0630825
-0.0588599
-0.0547731
-0.0508238
-0.0470133
-0.0433424
-0.0398112
-0.0364192
-0.0331657
-0.0300492
-0.0270681
-0.02422
-0.0215026
-0.0189131
-0.0164482
-0.0141046
-0.0118787
-0.00976679
-0.00776489
-0.00586913
-0.00407548
-0.00237941
-0.000776692
-0.194012
-0.188842
-0.183576
-0.178224
-0.172798
-0.16731
-0.161773
-0.1562
-0.150606
-0.145003
-0.139404
-0.133822
-0.128269
-0.122756
-0.117294
-0.111895
-0.106566
-0.101319
-0.0961602
-0.0910987
-0.0861413
-0.0812945
-0.0765639
-0.0719548
-0.0674714
-0.0631175
-0.0588963
-0.0548101
-0.0508608
-0.0470496
-0.0433775
-0.0398445
-0.0364503
-0.0331943
-0.030075
-0.0270909
-0.0242399
-0.0215195
-0.0189271
-0.0164595
-0.0141135
-0.0118855
-0.00977164
-0.00776819
-0.00587122
-0.0040767
-0.00238007
-0.000777084
-0.194014
-0.188843
-0.183574
-0.178219
-0.17279
-0.167297
-0.161756
-0.15618
-0.150583
-0.144978
-0.139379
-0.133798
-0.128247
-0.122738
-0.117281
-0.111886
-0.106563
-0.101321
-0.0961687
-0.091113
-0.086161
-0.0813192
-0.0765931
-0.0719877
-0.0675073
-0.0631557
-0.0589359
-0.0548504
-0.050901
-0.047089
-0.0434155
-0.0398805
-0.0364839
-0.0332251
-0.0301027
-0.0271155
-0.0242612
-0.0215377
-0.0189422
-0.0164717
-0.0141231
-0.0118926
-0.00977682
-0.00777171
-0.00587345
-0.00407799
-0.00238077
-0.000777498
-0.194015
-0.188843
-0.183573
-0.178214
-0.17278
-0.167282
-0.161736
-0.156156
-0.150556
-0.14495
-0.139351
-0.133772
-0.128223
-0.122718
-0.117265
-0.111876
-0.10656
-0.101324
-0.0961778
-0.0911284
-0.0861823
-0.0813459
-0.0766246
-0.0720232
-0.067546
-0.0631967
-0.0589784
-0.0548936
-0.050944
-0.0471311
-0.043456
-0.0399189
-0.0365196
-0.0332578
-0.0301322
-0.0271415
-0.0242838
-0.0215569
-0.0189581
-0.0164846
-0.0141331
-0.0119002
-0.00978227
-0.00777541
-0.00587579
-0.00407935
-0.0023815
-0.000777926
-0.194017
-0.188844
-0.183571
-0.178208
-0.172769
-0.167266
-0.161715
-0.15613
-0.150527
-0.14492
-0.13932
-0.133742
-0.128197
-0.122696
-0.117249
-0.111866
-0.106555
-0.101327
-0.0961875
-0.0911447
-0.086205
-0.0813743
-0.0766579
-0.0720608
-0.0675869
-0.0632401
-0.0590233
-0.0549391
-0.0509893
-0.0471753
-0.0434985
-0.039959
-0.036557
-0.0332919
-0.0301629
-0.0271686
-0.0243073
-0.0215768
-0.0189746
-0.0164979
-0.0141435
-0.011908
-0.00978789
-0.00777922
-0.00587819
-0.00408074
-0.00238224
-0.000778355
-0.194019
-0.188844
-0.183568
-0.178201
-0.172756
-0.167248
-0.161691
-0.156102
-0.150496
-0.144887
-0.139288
-0.133711
-0.128169
-0.122672
-0.117231
-0.111854
-0.106551
-0.10133
-0.0961975
-0.0911617
-0.0862286
-0.0814038
-0.0766927
-0.0720998
-0.0676294
-0.063285
-0.0590697
-0.0549861
-0.0510359
-0.0472209
-0.0435422
-0.0400003
-0.0365953
-0.0333269
-0.0301943
-0.0271963
-0.0243313
-0.0215971
-0.0189914
-0.0165114
-0.0141541
-0.011916
-0.00979357
-0.00778305
-0.00588059
-0.00408212
-0.00238297
-0.00077877
-0.19402
-0.188845
-0.183565
-0.178194
-0.172743
-0.167228
-0.161666
-0.156072
-0.150463
-0.144852
-0.139253
-0.133679
-0.12814
-0.122648
-0.117212
-0.111842
-0.106546
-0.101332
-0.0962077
-0.0911791
-0.0862526
-0.0814339
-0.0767281
-0.0721396
-0.0676726
-0.0633306
-0.0591168
-0.0550337
-0.0510832
-0.0472669
-0.0435863
-0.0400419
-0.0366338
-0.0333621
-0.0302259
-0.0272241
-0.0243553
-0.0216174
-0.0190082
-0.0165249
-0.0141646
-0.0119239
-0.0097992
-0.00778684
-0.00588296
-0.00408346
-0.00238366
-0.000779155
-0.194022
-0.188845
-0.183562
-0.178186
-0.17273
-0.167209
-0.16164
-0.156042
-0.150429
-0.144816
-0.139218
-0.133645
-0.12811
-0.122623
-0.117193
-0.11183
-0.106541
-0.101335
-0.0962178
-0.0911964
-0.0862767
-0.081464
-0.0767634
-0.0721792
-0.0677156
-0.063376
-0.0591636
-0.055081
-0.0511299
-0.0473124
-0.0436298
-0.0400829
-0.0366718
-0.0333968
-0.0302569
-0.0272514
-0.0243789
-0.0216373
-0.0190246
-0.0165381
-0.0141748
-0.0119315
-0.00980466
-0.0077905
-0.00588522
-0.00408473
-0.0023843
-0.000779494
-0.194024
-0.188845
-0.183559
-0.178178
-0.172716
-0.167189
-0.161615
-0.156011
-0.150395
-0.144781
-0.139183
-0.133612
-0.128081
-0.122598
-0.117174
-0.111818
-0.106536
-0.101337
-0.0962276
-0.0912133
-0.0863001
-0.0814933
-0.0767978
-0.0722178
-0.0677575
-0.0634202
-0.0592091
-0.0551268
-0.0511754
-0.0473565
-0.0436721
-0.0401226
-0.0367086
-0.0334302
-0.0302868
-0.0272777
-0.0244015
-0.0216564
-0.0190404
-0.0165507
-0.0141846
-0.0119388
-0.00980986
-0.00779396
-0.00588735
-0.00408589
-0.00238486
-0.000779774
-0.194025
-0.188845
-0.183557
-0.178171
-0.172703
-0.16717
-0.16159
-0.155982
-0.150363
-0.144747
-0.139149
-0.13358
-0.128052
-0.122574
-0.117156
-0.111806
-0.106532
-0.10134
-0.0962369
-0.0912293
-0.0863224
-0.0815213
-0.0768306
-0.0722546
-0.0677973
-0.0634622
-0.0592523
-0.0551705
-0.0512185
-0.0473985
-0.0437121
-0.0401603
-0.0367434
-0.0334619
-0.0303152
-0.0273026
-0.024423
-0.0216745
-0.0190552
-0.0165626
-0.0141938
-0.0119457
-0.00981469
-0.00779716
-0.00588928
-0.00408693
-0.00238534
-0.000779987
-0.194026
-0.188845
-0.183554
-0.178164
-0.172691
-0.167151
-0.161566
-0.155954
-0.150332
-0.144715
-0.139117
-0.13355
-0.128025
-0.122552
-0.117139
-0.111795
-0.106527
-0.101342
-0.0962455
-0.0912443
-0.0863432
-0.0815473
-0.0768612
-0.0722889
-0.0678345
-0.0635014
-0.0592926
-0.0552111
-0.0512587
-0.0474375
-0.0437494
-0.0401953
-0.0367758
-0.0334913
-0.0303415
-0.0273257
-0.0244428
-0.0216912
-0.0190689
-0.0165736
-0.0142023
-0.011952
-0.00981911
-0.00780007
-0.00589102
-0.00408783
-0.00238572
-0.000780129
-0.194027
-0.188845
-0.183551
-0.178157
-0.172679
-0.167135
-0.161545
-0.155929
-0.150304
-0.144686
-0.139088
-0.133522
-0.128
-0.122531
-0.117123
-0.111785
-0.106522
-0.101343
-0.0962533
-0.0912578
-0.0863622
-0.0815711
-0.0768891
-0.0723203
-0.0678685
-0.0635371
-0.0593295
-0.0552482
-0.0512954
-0.0474731
-0.0437834
-0.0402273
-0.0368053
-0.0335182
-0.0303654
-0.0273467
-0.0244609
-0.0217064
-0.0190814
-0.0165835
-0.01421
-0.0119576
-0.00982307
-0.00780264
-0.00589253
-0.00408859
-0.00238601
-0.000780204
-0.194028
-0.188845
-0.183548
-0.178151
-0.172669
-0.16712
-0.161526
-0.155906
-0.150279
-0.144659
-0.139061
-0.133497
-0.127978
-0.122512
-0.117109
-0.111775
-0.106518
-0.101345
-0.0962602
-0.09127
-0.0863791
-0.0815924
-0.0769141
-0.0723484
-0.0678989
-0.0635692
-0.0593625
-0.0552815
-0.0513283
-0.0475051
-0.043814
-0.040256
-0.0368319
-0.0335423
-0.030387
-0.0273655
-0.0244771
-0.02172
-0.0190926
-0.0165924
-0.0142168
-0.0119626
-0.00982657
-0.0078049
-0.00589383
-0.00408921
-0.00238621
-0.000780217
-0.194029
-0.188844
-0.183546
-0.178146
-0.172659
-0.167106
-0.161509
-0.155886
-0.150256
-0.144636
-0.139038
-0.133475
-0.127958
-0.122496
-0.117096
-0.111767
-0.106515
-0.101346
-0.0962662
-0.0912805
-0.086394
-0.0816111
-0.0769361
-0.0723731
-0.0679258
-0.0635976
-0.0593917
-0.055311
-0.0513574
-0.0475334
-0.043841
-0.0402814
-0.0368553
-0.0335636
-0.030406
-0.0273822
-0.0244914
-0.021732
-0.0191024
-0.0166002
-0.0142228
-0.011967
-0.00982961
-0.00780683
-0.00589492
-0.00408971
-0.00238633
-0.000780179
-0.19403
-0.188844
-0.183544
-0.178141
-0.172652
-0.167095
-0.161494
-0.155868
-0.150237
-0.144616
-0.139018
-0.133456
-0.127941
-0.122481
-0.117085
-0.11176
-0.106512
-0.101347
-0.0962713
-0.0912897
-0.0864068
-0.0816273
-0.0769552
-0.0723946
-0.0679491
-0.0636222
-0.0594171
-0.0553366
-0.0513828
-0.047558
-0.0438646
-0.0403035
-0.0368758
-0.0335821
-0.0304225
-0.0273967
-0.0245038
-0.0217425
-0.0191109
-0.016607
-0.014228
-0.0119708
-0.00983222
-0.00780847
-0.00589582
-0.00409008
-0.00238639
-0.0007801
-0.19403
-0.188844
-0.183543
-0.178137
-0.172645
-0.167085
-0.161481
-0.155854
-0.150221
-0.144598
-0.139001
-0.13344
-0.127926
-0.122469
-0.117075
-0.111753
-0.106509
-0.101348
-0.0962756
-0.0912974
-0.0864178
-0.0816411
-0.0769715
-0.0724129
-0.0679691
-0.0636433
-0.0594389
-0.0553586
-0.0514046
-0.0475793
-0.0438848
-0.0403226
-0.0368934
-0.0335982
-0.0304368
-0.0274092
-0.0245146
-0.0217515
-0.0191183
-0.0166128
-0.0142324
-0.0119741
-0.00983442
-0.00780984
-0.00589655
-0.00409037
-0.0023864
-0.00077999
-0.194031
-0.188844
-0.183541
-0.178134
-0.172639
-0.167077
-0.161471
-0.155841
-0.150207
-0.144584
-0.138986
-0.133426
-0.127914
-0.122458
-0.117067
-0.111748
-0.106506
-0.101348
-0.0962791
-0.0913038
-0.0864269
-0.0816527
-0.0769853
-0.0724285
-0.067986
-0.0636613
-0.0594574
-0.0553773
-0.0514232
-0.0475973
-0.0439021
-0.0403389
-0.0369084
-0.0336118
-0.030449
-0.0274199
-0.0245238
-0.0217592
-0.0191246
-0.0166178
-0.0142362
-0.0119768
-0.00983627
-0.00781097
-0.00589713
-0.00409056
-0.00238637
-0.00077986
-0.194031
-0.188843
-0.18354
-0.178131
-0.172634
-0.16707
-0.161462
-0.155831
-0.150195
-0.144572
-0.138974
-0.133415
-0.127904
-0.12245
-0.11706
-0.111743
-0.106504
-0.101349
-0.096282
-0.0913091
-0.0864345
-0.0816624
-0.0769968
-0.0724415
-0.0680002
-0.0636763
-0.059473
-0.0553931
-0.0514389
-0.0476126
-0.0439167
-0.0403526
-0.0369211
-0.0336234
-0.0304594
-0.027429
-0.0245315
-0.0217657
-0.0191298
-0.0166219
-0.0142393
-0.0119791
-0.0098378
-0.00781189
-0.00589758
-0.00409069
-0.0023863
-0.000779716
-0.194031
-0.188843
-0.183539
-0.178128
-0.17263
-0.167064
-0.161455
-0.155822
-0.150186
-0.144562
-0.138964
-0.133405
-0.127895
-0.122442
-0.117055
-0.111739
-0.106502
-0.101349
-0.0962843
-0.0913135
-0.0864408
-0.0816704
-0.0770063
-0.0724523
-0.0680121
-0.0636889
-0.059486
-0.0554063
-0.051452
-0.0476254
-0.043929
-0.0403641
-0.0369318
-0.0336331
-0.030468
-0.0274365
-0.024538
-0.0217711
-0.0191343
-0.0166254
-0.014242
-0.011981
-0.00983905
-0.00781263
-0.00589793
-0.00409077
-0.00238621
-0.000779566
-0.194031
-0.188843
-0.183538
-0.178126
-0.172627
-0.16706
-0.161449
-0.155815
-0.150178
-0.144553
-0.138956
-0.133397
-0.127888
-0.122436
-0.11705
-0.111736
-0.1065
-0.101349
-0.0962861
-0.091317
-0.0864459
-0.081677
-0.0770142
-0.0724613
-0.0680219
-0.0636993
-0.0594968
-0.0554173
-0.0514629
-0.047636
-0.0439392
-0.0403737
-0.0369407
-0.0336412
-0.0304753
-0.0274429
-0.0245434
-0.0217756
-0.019138
-0.0166283
-0.0142442
-0.0119825
-0.00984007
-0.00781322
-0.00589819
-0.0040908
-0.00238611
-0.000779413
-0.194031
-0.188843
-0.183537
-0.178125
-0.172624
-0.167056
-0.161444
-0.155809
-0.150171
-0.144546
-0.138949
-0.133391
-0.127882
-0.122431
-0.117046
-0.111733
-0.106499
-0.101349
-0.0962874
-0.0913198
-0.08645
-0.0816823
-0.0770206
-0.0724686
-0.0680299
-0.0637079
-0.0595057
-0.0554263
-0.0514719
-0.0476448
-0.0439476
-0.0403817
-0.0369481
-0.0336479
-0.0304812
-0.0274481
-0.0245479
-0.0217793
-0.019141
-0.0166307
-0.0142459
-0.0119838
-0.00984088
-0.00781368
-0.00589838
-0.0040908
-0.002386
-0.000779262
-0.194031
-0.188842
-0.183536
-0.178123
-0.172622
-0.167052
-0.161439
-0.155804
-0.150166
-0.144541
-0.138943
-0.133385
-0.127877
-0.122426
-0.117042
-0.111731
-0.106498
-0.101349
-0.0962885
-0.091322
-0.0864533
-0.0816866
-0.0770258
-0.0724746
-0.0680365
-0.0637149
-0.059513
-0.0554337
-0.0514793
-0.047652
-0.0439546
-0.0403882
-0.0369541
-0.0336534
-0.0304862
-0.0274524
-0.0245516
-0.0217824
-0.0191435
-0.0166326
-0.0142474
-0.0119848
-0.00984153
-0.00781403
-0.0058985
-0.00409077
-0.00238588
-0.000779114
-0.194031
-0.188842
-0.183535
-0.178122
-0.17262
-0.16705
-0.161436
-0.1558
-0.150161
-0.144536
-0.138938
-0.13338
-0.127872
-0.122423
-0.117039
-0.111729
-0.106496
-0.101348
-0.0962892
-0.0913237
-0.086456
-0.0816901
-0.07703
-0.0724794
-0.0680418
-0.0637206
-0.0595189
-0.0554398
-0.0514853
-0.0476579
-0.0439602
-0.0403936
-0.0369591
-0.0336579
-0.0304902
-0.0274559
-0.0245546
-0.0217849
-0.0191455
-0.0166342
-0.0142486
-0.0119856
-0.00984204
-0.00781429
-0.00589858
-0.00409072
-0.00238576
-0.000778972
-0.194031
-0.188842
-0.183535
-0.178121
-0.172618
-0.167048
-0.161433
-0.155797
-0.150158
-0.144532
-0.138935
-0.133377
-0.127869
-0.12242
-0.117037
-0.111727
-0.106495
-0.101348
-0.0962898
-0.091325
-0.086458
-0.0816928
-0.0770334
-0.0724832
-0.0680461
-0.0637252
-0.0595238
-0.0554447
-0.0514902
-0.0476627
-0.0439649
-0.040398
-0.0369631
-0.0336616
-0.0304935
-0.0274588
-0.024557
-0.021787
-0.0191471
-0.0166355
-0.0142495
-0.0119862
-0.00984243
-0.00781448
-0.00589862
-0.00409066
-0.00238564
-0.000778835
-0.19403
-0.188841
-0.183534
-0.17812
-0.172617
-0.167046
-0.161431
-0.155794
-0.150155
-0.144529
-0.138931
-0.133374
-0.127866
-0.122417
-0.117035
-0.111725
-0.106494
-0.101348
-0.0962901
-0.0913259
-0.0864596
-0.081695
-0.077036
-0.0724863
-0.0680495
-0.0637289
-0.0595276
-0.0554487
-0.0514942
-0.0476666
-0.0439686
-0.0404015
-0.0369664
-0.0336646
-0.0304961
-0.0274611
-0.024559
-0.0217886
-0.0191484
-0.0166365
-0.0142502
-0.0119867
-0.00984272
-0.00781461
-0.00589863
-0.00409059
-0.00238552
-0.000778705
-0.19403
-0.188841
-0.183533
-0.178119
-0.172615
-0.167044
-0.161429
-0.155792
-0.150152
-0.144526
-0.138928
-0.133371
-0.127863
-0.122415
-0.117033
-0.111724
-0.106494
-0.101347
-0.0962902
-0.0913266
-0.0864608
-0.0816967
-0.0770381
-0.0724888
-0.0680523
-0.0637319
-0.0595308
-0.0554519
-0.0514974
-0.0476698
-0.0439716
-0.0404044
-0.0369691
-0.033667
-0.0304983
-0.027463
-0.0245606
-0.0217899
-0.0191495
-0.0166373
-0.0142508
-0.0119871
-0.00984294
-0.00781469
-0.00589861
-0.00409051
-0.00238541
-0.000778581
-0.19403
-0.18884
-0.183533
-0.178118
-0.172614
-0.167042
-0.161427
-0.15579
-0.15015
-0.144524
-0.138926
-0.133369
-0.127861
-0.122413
-0.117031
-0.111723
-0.106493
-0.101347
-0.0962903
-0.0913271
-0.0864617
-0.0816979
-0.0770397
-0.0724907
-0.0680544
-0.0637342
-0.0595332
-0.0554544
-0.0514999
-0.0476723
-0.043974
-0.0404066
-0.0369712
-0.0336689
-0.0305
-0.0274645
-0.0245618
-0.0217909
-0.0191503
-0.0166379
-0.0142512
-0.0119874
-0.00984309
-0.00781474
-0.00589858
-0.00409042
-0.0023853
-0.000778465
-0.19403
-0.18884
-0.183532
-0.178117
-0.172613
-0.167041
-0.161425
-0.155788
-0.150148
-0.144522
-0.138924
-0.133367
-0.12786
-0.122411
-0.11703
-0.111721
-0.106492
-0.101347
-0.0962902
-0.0913274
-0.0864623
-0.0816989
-0.077041
-0.0724922
-0.0680561
-0.0637361
-0.0595352
-0.0554564
-0.051502
-0.0476743
-0.043976
-0.0404085
-0.0369729
-0.0336704
-0.0305013
-0.0274656
-0.0245628
-0.0217917
-0.0191509
-0.0166384
-0.0142516
-0.0119876
-0.00984319
-0.00781475
-0.00589853
-0.00409033
-0.00238519
-0.000778355
-0.194029
-0.18884
-0.183532
-0.178117
-0.172612
-0.16704
-0.161424
-0.155786
-0.150146
-0.14452
-0.138922
-0.133365
-0.127858
-0.12241
-0.117029
-0.11172
-0.106491
-0.101346
-0.0962901
-0.0913275
-0.0864627
-0.0816996
-0.0770419
-0.0724933
-0.0680574
-0.0637375
-0.0595367
-0.055458
-0.0515036
-0.0476758
-0.0439775
-0.0404099
-0.0369742
-0.0336716
-0.0305024
-0.0274665
-0.0245636
-0.0217924
-0.0191514
-0.0166387
-0.0142518
-0.0119877
-0.00984324
-0.00781474
-0.00589847
-0.00409024
-0.00238508
-0.000778251
-0.194029
-0.188839
-0.183531
-0.178116
-0.172611
-0.167039
-0.161423
-0.155785
-0.150145
-0.144519
-0.138921
-0.133363
-0.127856
-0.122409
-0.117028
-0.11172
-0.10649
-0.101346
-0.0962898
-0.0913276
-0.086463
-0.0817001
-0.0770426
-0.0724942
-0.0680584
-0.0637386
-0.0595379
-0.0554592
-0.0515048
-0.0476771
-0.0439787
-0.040411
-0.0369752
-0.0336726
-0.0305032
-0.0274673
-0.0245642
-0.0217928
-0.0191518
-0.016639
-0.014252
-0.0119878
-0.00984327
-0.00781471
-0.0058984
-0.00409015
-0.00238498
-0.000778153
-0.194028
-0.188839
-0.183531
-0.178115
-0.172611
-0.167038
-0.161422
-0.155784
-0.150143
-0.144517
-0.138919
-0.133362
-0.127855
-0.122408
-0.117027
-0.111719
-0.10649
-0.101345
-0.0962896
-0.0913275
-0.0864631
-0.0817004
-0.077043
-0.0724948
-0.0680592
-0.0637394
-0.0595388
-0.0554602
-0.0515057
-0.047678
-0.0439796
-0.0404118
-0.036976
-0.0336733
-0.0305038
-0.0274678
-0.0245646
-0.0217932
-0.0191521
-0.0166392
-0.0142521
-0.0119879
-0.00984326
-0.00781467
-0.00589833
-0.00409006
-0.00238489
-0.00077806
-0.194028
-0.188838
-0.18353
-0.178114
-0.17261
-0.167037
-0.161421
-0.155783
-0.150142
-0.144516
-0.138918
-0.133361
-0.127854
-0.122406
-0.117026
-0.111718
-0.106489
-0.101345
-0.0962892
-0.0913273
-0.0864631
-0.0817005
-0.0770433
-0.0724952
-0.0680597
-0.06374
-0.0595394
-0.0554609
-0.0515064
-0.0476787
-0.0439802
-0.0404125
-0.0369766
-0.0336738
-0.0305043
-0.0274682
-0.024565
-0.0217935
-0.0191522
-0.0166393
-0.0142522
-0.0119879
-0.00984324
-0.00781461
-0.00589825
-0.00408997
-0.00238479
-0.000777974
-0.194028
-0.188838
-0.183529
-0.178114
-0.172609
-0.167036
-0.16142
-0.155781
-0.150141
-0.144515
-0.138917
-0.13336
-0.127853
-0.122405
-0.117025
-0.111717
-0.106488
-0.101344
-0.0962889
-0.0913271
-0.086463
-0.0817006
-0.0770435
-0.0724955
-0.06806
-0.0637404
-0.0595399
-0.0554614
-0.0515069
-0.0476792
-0.0439807
-0.0404129
-0.036977
-0.0336742
-0.0305046
-0.0274685
-0.0245652
-0.0217936
-0.0191524
-0.0166394
-0.0142522
-0.0119879
-0.0098432
-0.00781455
-0.00589817
-0.00408989
-0.00238471
-0.000777892
-0.194027
-0.188837
-0.183529
-0.178113
-0.172608
-0.167035
-0.161419
-0.15578
-0.15014
-0.144514
-0.138916
-0.133359
-0.127852
-0.122405
-0.117024
-0.111716
-0.106488
-0.101344
-0.0962885
-0.0913268
-0.0864629
-0.0817005
-0.0770436
-0.0724956
-0.0680602
-0.0637407
-0.0595402
-0.0554617
-0.0515073
-0.0476796
-0.0439811
-0.0404133
-0.0369773
-0.0336744
-0.0305049
-0.0274687
-0.0245653
-0.0217937
-0.0191524
-0.0166394
-0.0142522
-0.0119879
-0.00984315
-0.00781448
-0.0058981
-0.0040898
-0.00238462
-0.000777815
-0.194027
-0.188837
-0.183528
-0.178112
-0.172607
-0.167034
-0.161418
-0.155779
-0.150139
-0.144513
-0.138915
-0.133358
-0.127851
-0.122404
-0.117023
-0.111716
-0.106487
-0.101343
-0.0962881
-0.0913265
-0.0864627
-0.0817004
-0.0770435
-0.0724957
-0.0680603
-0.0637409
-0.0595404
-0.0554619
-0.0515075
-0.0476798
-0.0439813
-0.0404135
-0.0369775
-0.0336746
-0.030505
-0.0274688
-0.0245654
-0.0217938
-0.0191525
-0.0166394
-0.0142522
-0.0119878
-0.00984309
-0.00781441
-0.00589802
-0.00408972
-0.00238454
-0.000777742
-0.194026
-0.188836
-0.183527
-0.178112
-0.172606
-0.167033
-0.161417
-0.155778
-0.150138
-0.144512
-0.138914
-0.133357
-0.12785
-0.122403
-0.117022
-0.111715
-0.106487
-0.101343
-0.0962876
-0.0913262
-0.0864624
-0.0817002
-0.0770434
-0.0724956
-0.0680603
-0.0637409
-0.0595405
-0.055462
-0.0515077
-0.0476799
-0.0439814
-0.0404136
-0.0369776
-0.0336747
-0.0305051
-0.0274688
-0.0245654
-0.0217938
-0.0191524
-0.0166394
-0.0142521
-0.0119878
-0.00984302
-0.00781433
-0.00589794
-0.00408964
-0.00238447
-0.000777674
-0.194025
-0.188835
-0.183527
-0.178111
-0.172606
-0.167032
-0.161416
-0.155777
-0.150137
-0.144511
-0.138913
-0.133356
-0.127849
-0.122402
-0.117021
-0.111714
-0.106486
-0.101342
-0.0962872
-0.0913258
-0.0864621
-0.0817
-0.0770432
-0.0724955
-0.0680603
-0.0637409
-0.0595405
-0.0554621
-0.0515077
-0.04768
-0.0439815
-0.0404137
-0.0369776
-0.0336747
-0.0305051
-0.0274688
-0.0245654
-0.0217938
-0.0191524
-0.0166393
-0.0142521
-0.0119877
-0.00984295
-0.00781426
-0.00589786
-0.00408957
-0.0023844
-0.000777609
-0.194025
-0.188835
-0.183526
-0.17811
-0.172605
-0.167032
-0.161415
-0.155777
-0.150136
-0.14451
-0.138912
-0.133355
-0.127848
-0.122401
-0.117021
-0.111714
-0.106485
-0.101342
-0.0962867
-0.0913254
-0.0864618
-0.0816997
-0.077043
-0.0724953
-0.0680602
-0.0637408
-0.0595404
-0.055462
-0.0515077
-0.04768
-0.0439815
-0.0404137
-0.0369776
-0.0336747
-0.0305051
-0.0274688
-0.0245654
-0.0217937
-0.0191524
-0.0166393
-0.014252
-0.0119876
-0.00984287
-0.00781418
-0.00589779
-0.0040895
-0.00238433
-0.000777549
-0.298815
-0.287032
-0.275595
-0.26446
-0.253585
-0.242929
-0.23245
-0.222108
-0.211864
-0.201678
-0.191158
-0.179317
-0.165566
-0.150148
-0.134133
-0.118275
-0.102489
-0.0869981
-0.0723398
-0.0589412
-0.0470774
-0.0368659
-0.0282898
-0.0212351
-0.0155307
-0.010982
-0.00739501
-0.00459128
-0.00241474
-0.000734075
-0.29881
-0.287027
-0.27559
-0.264456
-0.253581
-0.242925
-0.232446
-0.222104
-0.21186
-0.201675
-0.191154
-0.179311
-0.165559
-0.150139
-0.134124
-0.118266
-0.10248
-0.08699
-0.0723329
-0.0589357
-0.0470733
-0.036863
-0.0282878
-0.0212338
-0.0155298
-0.0109814
-0.00739471
-0.0045911
-0.00241463
-0.000733999
-0.298805
-0.287023
-0.275586
-0.264452
-0.253578
-0.242922
-0.232443
-0.222101
-0.211858
-0.201672
-0.191151
-0.179307
-0.165553
-0.150133
-0.134117
-0.118259
-0.102474
-0.086984
-0.0723278
-0.0589317
-0.0470703
-0.0368608
-0.0282864
-0.0212329
-0.0155293
-0.0109811
-0.00739451
-0.00459098
-0.00241455
-0.000733942
-0.298802
-0.287019
-0.275583
-0.264449
-0.253575
-0.242919
-0.23244
-0.222099
-0.211855
-0.20167
-0.191149
-0.179304
-0.165549
-0.150128
-0.134112
-0.118254
-0.102469
-0.0869797
-0.0723242
-0.0589288
-0.0470681
-0.0368593
-0.0282854
-0.0212322
-0.0155289
-0.0109809
-0.00739438
-0.0045909
-0.0024145
-0.000733899
-0.298799
-0.287017
-0.275581
-0.264447
-0.253573
-0.242917
-0.232439
-0.222097
-0.211854
-0.201668
-0.191147
-0.179301
-0.165547
-0.150125
-0.134109
-0.118251
-0.102466
-0.0869767
-0.0723216
-0.0589268
-0.0470666
-0.0368583
-0.0282847
-0.0212318
-0.0155286
-0.0109807
-0.0073943
-0.00459086
-0.00241447
-0.000733865
-0.298797
-0.287015
-0.275579
-0.264445
-0.253572
-0.242916
-0.232437
-0.222096
-0.211853
-0.201667
-0.191146
-0.1793
-0.165545
-0.150123
-0.134107
-0.118249
-0.102464
-0.0869747
-0.0723199
-0.0589255
-0.0470656
-0.0368576
-0.0282842
-0.0212315
-0.0155284
-0.0109806
-0.00739427
-0.00459084
-0.00241445
-0.000733837
-0.298795
-0.287014
-0.275578
-0.264444
-0.253571
-0.242915
-0.232437
-0.222095
-0.211852
-0.201667
-0.191145
-0.179299
-0.165544
-0.150122
-0.134106
-0.118247
-0.102462
-0.0869734
-0.0723188
-0.0589246
-0.0470649
-0.0368571
-0.0282839
-0.0212313
-0.0155284
-0.0109806
-0.00739427
-0.00459084
-0.00241445
-0.000733813
-0.298795
-0.287013
-0.275577
-0.264444
-0.25357
-0.242915
-0.232436
-0.222095
-0.211852
-0.201666
-0.191145
-0.179298
-0.165543
-0.150121
-0.134105
-0.118247
-0.102461
-0.0869727
-0.0723181
-0.058924
-0.0470645
-0.0368568
-0.0282837
-0.0212312
-0.0155283
-0.0109806
-0.00739429
-0.00459087
-0.00241445
-0.000733791
-0.298795
-0.287013
-0.275577
-0.264444
-0.25357
-0.242914
-0.232436
-0.222095
-0.211851
-0.201666
-0.191145
-0.179298
-0.165543
-0.150121
-0.134105
-0.118247
-0.102461
-0.0869723
-0.0723178
-0.0589237
-0.0470642
-0.0368566
-0.0282836
-0.0212312
-0.0155284
-0.0109807
-0.00739435
-0.00459091
-0.00241447
-0.00073377
-0.298795
-0.287013
-0.275577
-0.264444
-0.25357
-0.242914
-0.232436
-0.222095
-0.211851
-0.201666
-0.191145
-0.179299
-0.165543
-0.150122
-0.134106
-0.118247
-0.102461
-0.0869723
-0.0723176
-0.0589235
-0.0470641
-0.0368565
-0.0282836
-0.0212312
-0.0155284
-0.0109808
-0.00739443
-0.00459096
-0.00241449
-0.000733749
-0.298795
-0.287013
-0.275577
-0.264444
-0.25357
-0.242915
-0.232436
-0.222095
-0.211852
-0.201666
-0.191145
-0.179299
-0.165544
-0.150123
-0.134106
-0.118248
-0.102462
-0.0869724
-0.0723177
-0.0589235
-0.047064
-0.0368565
-0.0282836
-0.0212313
-0.0155285
-0.0109809
-0.00739453
-0.00459104
-0.00241452
-0.000733729
-0.298795
-0.287014
-0.275578
-0.264444
-0.253571
-0.242915
-0.232437
-0.222095
-0.211852
-0.201667
-0.191145
-0.179299
-0.165545
-0.150124
-0.134107
-0.118248
-0.102462
-0.0869727
-0.0723178
-0.0589235
-0.047064
-0.0368565
-0.0282836
-0.0212314
-0.0155287
-0.010981
-0.00739467
-0.00459113
-0.00241456
-0.000733709
-0.298796
-0.287014
-0.275578
-0.264445
-0.253571
-0.242915
-0.232437
-0.222096
-0.211852
-0.201667
-0.191145
-0.1793
-0.165546
-0.150125
-0.134109
-0.118249
-0.102463
-0.0869731
-0.072318
-0.0589236
-0.0470641
-0.0368566
-0.0282838
-0.0212316
-0.0155289
-0.0109812
-0.00739484
-0.00459125
-0.00241461
-0.000733689
-0.298797
-0.287015
-0.275579
-0.264445
-0.253571
-0.242916
-0.232437
-0.222096
-0.211852
-0.201667
-0.191146
-0.179301
-0.165547
-0.150127
-0.13411
-0.11825
-0.102464
-0.0869736
-0.0723183
-0.0589237
-0.0470642
-0.0368567
-0.0282839
-0.0212318
-0.0155291
-0.0109815
-0.00739505
-0.0045914
-0.00241468
-0.00073367
-0.298798
-0.287015
-0.275579
-0.264446
-0.253572
-0.242916
-0.232438
-0.222097
-0.211853
-0.201668
-0.191146
-0.179301