/*--------------------------------*- C++ -*----------------------------------*\
| =========                 |                                                 |
| \\      /  F ield         | OpenFOAM: The Open Source CFD Toolbox           |
|  \\    /   O peration     | Version:  2212                                  |
|   \\  /    A nd           | Website:  www.openfoam.com                      |
|    \\/     M anipulation  |                                                 |
\*---------------------------------------------------------------------------*/
FoamFile
{
    version     2.0;
    format      ascii;
    arch        "LSB;label=32;scalar=64";
    class       volScalarField;
    location    "0";
    object      Cz;
}
// * * * * * * * * * * * * * * * * * * * * * * * * * * * * * * * * * * * * * //

dimensions      [0 1 0 0 0 0 0];

internalField   nonuniform List<scalar> 
18080
(
0.000187377
0.000190828
0.000194676
0.000198791
0.000202723
0.000206113
0.000208884
0.000210988
0.000212396
0.000213097
0.000213099
0.000212422
0.0002111
0.000209177
0.000206708
0.000203757
0.000200391
0.000196684
0.000192715
0.000188561
0.000184305
0.000180024
0.000175796
0.000171693
0.000167783
0.000164128
0.000160782
0.000157792
0.000155206
0.000153054
0.000151349
0.00015011
0.000149346
0.000149049
0.000149212
0.000149819
0.000150843
0.000152264
0.000154045
0.000156152
0.000158549
0.0001612
0.000164068
0.000167117
0.000170274
0.000173399
0.000176398
0.000179267
0.000482561
0.000491028
0.00050047
0.000510555
0.000520134
0.000528298
0.00053486
0.000539708
0.000542778
0.000544055
0.00054356
0.000541354
0.000537526
0.000532194
0.000525502
0.000517608
0.00050869
0.000498934
0.000488536
0.000477697
0.000466618
0.000455498
0.00044453
0.000433896
0.000423763
0.000414285
0.000405599
0.000397819
0.000391064
0.000385411
0.000380888
0.000377541
0.000375397
0.000374427
0.00037462
0.000375931
0.000378293
0.000381654
0.000385923
0.000391014
0.000396835
0.000403296
0.000410307
0.000417775
0.00042552
0.000433189
0.000440549
0.000447589
0.000883551
0.000898152
0.000914435
0.000931794
0.000948153
0.000961879
0.000972656
0.000980306
0.000984734
0.000985928
0.000983946
0.000978908
0.000970988
0.000960408
0.000947431
0.000932349
0.000915481
0.000897164
0.00087775
0.000857595
0.000837058
0.000816494
0.000796241
0.000776621
0.00075793
0.000740437
0.000724382
0.000709966
0.000697394
0.000686801
0.000678235
0.000671774
0.000667462
0.000665249
0.00066511
0.000666966
0.000670696
0.000676207
0.000683337
0.000691933
0.000701833
0.000712875
0.000724901
0.000737746
0.000751093
0.000764318
0.000777009
0.000789148
0.00139497
0.00141648
0.00144046
0.00146598
0.00148979
0.00150937
0.00152427
0.00153425
0.0015392
0.00153913
0.00153415
0.00152449
0.00151043
0.00149233
0.0014706
0.00144571
0.00141816
0.00138846
0.00135717
0.00132482
0.00129196
0.00125914
0.00122688
0.00119565
0.0011659
0.00113804
0.00111244
0.00108938
0.00106919
0.00105205
0.00103804
0.00102727
0.0010198
0.00101556
0.0010145
0.00101649
0.00102137
0.00102897
0.00103905
0.00105138
0.00106571
0.0010818
0.0010994
0.00111826
0.0011379
0.00115738
0.00117608
0.00119396
0.00204107
0.00207019
0.00210267
0.00213712
0.00216887
0.00219433
0.00221291
0.00222431
0.00222843
0.00222534
0.00221525
0.00219851
0.00217556
0.00214693
0.00211326
0.00207519
0.00203347
0.00198884
0.00194206
0.00189392
0.0018452
0.00179664
0.00174898
0.0017029
0.00165902
0.0016179
0.00158004
0.00154585
0.00151577
0.00149007
0.00146882
0.0014522
0.00144027
0.00143291
0.00143008
0.00143158
0.00143715
0.0014466
0.00145956
0.00147571
0.0014947
0.00151618
0.00153981
0.00156524
0.00159181
0.00161818
0.00164348
0.00166768
0.0028527
0.00289003
0.00293166
0.00297568
0.00301566
0.00304668
0.00306802
0.00307936
0.00308066
0.00307207
0.00305395
0.00302682
0.00299133
0.00294827
0.00289849
0.00284295
0.00278262
0.00271854
0.00265176
0.00258332
0.00251428
0.00244565
0.0023784
0.00231344
0.00225159
0.00219359
0.00214012
0.0020917
0.0020489
0.00201207
0.00198131
0.00195683
0.00193871
0.0019268
0.001921
0.00192106
0.00192663
0.00193743
0.00195298
0.00197284
0.00199654
0.00202362
0.00205362
0.00208607
0.00212008
0.00215388
0.00218631
0.00221733
0.00386636
0.00391234
0.00396361
0.00401762
0.00406576
0.00410155
0.00412414
0.00413324
0.00412888
0.00411138
0.0040813
0.00403942
0.00398666
0.0039241
0.00385294
0.00377443
0.0036899
0.00360073
0.00350828
0.00341395
0.00331909
0.00322502
0.003133
0.00304419
0.00295965
0.00288034
0.00280708
0.00274058
0.00268153
0.00263037
0.00258723
0.00255233
0.00252581
0.00250742
0.00249704
0.00249433
0.00249883
0.00251017
0.00252773
0.00255094
0.00257917
0.00261184
0.00264835
0.00268809
0.00272991
0.00277153
0.00281148
0.00284967
0.00512378
0.0051786
0.00523974
0.00530381
0.00535961
0.00539875
0.00542031
0.00542404
0.00541016
0.00537922
0.00533205
0.00526978
0.00519369
0.00510524
0.00500602
0.0048977
0.00478203
0.00466077
0.0045357
0.0044086
0.00428118
0.00415512
0.00403201
0.00391331
0.00380033
0.00369428
0.00359617
0.00350686
0.00342723
0.00335779
0.00329868
0.00325018
0.00321241
0.00318507
0.00316797
0.00316069
0.00316262
0.00317328
0.0031919
0.00321772
0.00325
0.00328795
0.00333083
0.00337788
0.00342764
0.00347726
0.00352488
0.0035704
0.00667078
0.00673429
0.00680512
0.0068789
0.00694126
0.00698157
0.00699885
0.00699302
0.00696453
0.00691426
0.00684347
0.00675369
0.00664668
0.00652438
0.0063889
0.00624238
0.00608708
0.00592525
0.00575913
0.00559094
0.00542285
0.00525694
0.00509516
0.00493931
0.00479101
0.00465171
0.00452266
0.00440488
0.00429941
0.00420689
0.00412744
0.00406138
0.00400885
0.00396942
0.00394286
0.00392862
0.00392595
0.00393422
0.00395247
0.00397977
0.00401516
0.00405771
0.00410647
0.00416049
0.004218
0.00427548
0.00433065
0.00438337
0.00855497
0.00862659
0.00870646
0.00878903
0.00885614
0.00889451
0.00890317
0.00888231
0.00883274
0.00875581
0.00865327
0.00852724
0.00838005
0.00821428
0.00803263
0.00783785
0.0076328
0.00742028
0.00720311
0.00698403
0.00676571
0.00655069
0.00634133
0.00613981
0.00594809
0.00576791
0.00560074
0.00544779
0.0053103
0.00518899
0.00508398
0.00499561
0.00492401
0.00486865
0.00482921
0.004805
0.00479506
0.00479865
0.00481456
0.00484165
0.00487877
0.00492474
0.00497842
0.00503868
0.00510333
0.00516814
0.00523034
0.00528979
0.0108221
0.0109007
0.0109884
0.0110781
0.0111474
0.0111797
0.0111742
0.0111315
0.0110529
0.0109404
0.0107964
0.0106237
0.0104254
0.0102048
0.00996539
0.00971062
0.00944404
0.00916914
0.00888939
0.00860813
0.00832858
0.00805381
0.00778667
0.00752974
0.00728534
0.00705552
0.006842
0.0066462
0.00646954
0.00631283
0.00617617
0.00605993
0.00596421
0.00588834
0.00583188
0.005794
0.00577351
0.00576948
0.00578048
0.00580511
0.00584197
0.00588966
0.00594681
0.00601203
0.00608273
0.00615389
0.00622217
0.00628742
0.0135102
0.0135942
0.0136879
0.0137826
0.0138504
0.0138715
0.0138453
0.0137727
0.0136558
0.0134973
0.0133005
0.0130692
0.0128073
0.012519
0.0122087
0.0118807
0.0115394
0.011189
0.0108338
0.0104777
0.0101247
0.00977841
0.00944216
0.009119
0.00881166
0.00852249
0.00825351
0.0080063
0.00778249
0.00758299
0.00740785
0.00725744
0.00713183
0.00703017
0.00695191
0.006896
0.00686102
0.00684586
0.00684876
0.00686808
0.00690214
0.00694928
0.00700786
0.00707626
0.00715141
0.0072274
0.00730033
0.00737001
0.0166432
0.0167303
0.0168275
0.0169241
0.0169864
0.0169903
0.0169355
0.0168238
0.0166582
0.0164422
0.0161803
0.0158772
0.015538
0.015168
0.0147726
0.014357
0.0139267
0.0134868
0.0130423
0.012598
0.0121585
0.0117281
0.0113107
0.0109098
0.0105286
0.0101697
0.00983554
0.00952778
0.00924831
0.00899807
0.00877707
0.00858566
0.00842386
0.00829062
0.00818523
0.00810643
0.00805252
0.00802215
0.00801326
0.00802389
0.00805209
0.00809588
0.00815337
0.00822263
0.00830012
0.00837896
0.00845464
0.00852694
0.020222
0.0203096
0.0204074
0.0205025
0.0205543
0.0205343
0.0204427
0.0202822
0.0200568
0.0197712
0.0194312
0.0190427
0.0186121
0.0181459
0.0176507
0.017133
0.0165991
0.0160553
0.0155075
0.0149613
0.014422
0.0138948
0.013384
0.0128938
0.0124276
0.0119886
0.0115794
0.0112018
0.010858
0.010549
0.0102746
0.0100351
0.00983063
0.00965977
0.00952168
0.00941483
0.00933722
0.00928725
0.00926251
0.00926073
0.00927961
0.00931688
0.00937033
0.00943775
0.00951504
0.00959435
0.00967051
0.00974324
0.0242178
0.024303
0.0243982
0.024488
0.0245242
0.0244736
0.0243369
0.0241179
0.0238217
0.0234547
0.0230238
0.0225367
0.022001
0.0214247
0.0208157
0.0201817
0.0195305
0.0188691
0.0182046
0.0175435
0.016892
0.0162559
0.0156403
0.0150497
0.0144882
0.0139593
0.0134657
0.0130095
0.0125932
0.0122175
0.0118825
0.0115883
0.0113349
0.0111205
0.0109443
0.0108043
0.0106982
0.0106242
0.0105795
0.0105615
0.0105674
0.0105948
0.0106411
0.0107037
0.0107781
0.0108553
0.0109294
0.0110002
0.0285673
0.0286474
0.0287367
0.0288174
0.0288332
0.0287456
0.0285561
0.0282697
0.027893
0.0274339
0.026901
0.0263034
0.0256505
0.0249519
0.0242168
0.0234544
0.0226736
0.0218829
0.0210902
0.0203031
0.0195286
0.0187732
0.0180428
0.0173426
0.0166768
0.0160494
0.0154634
0.0149212
0.0144252
0.0139764
0.0135744
0.0132196
0.0129116
0.0126486
0.0124292
0.0122515
0.0121127
0.0120106
0.0119421
0.0119041
0.0118938
0.0119081
0.0119441
0.0119991
0.0120678
0.0121402
0.0122098
0.0122763
0.0331732
0.0332455
0.0333261
0.0333944
0.0333857
0.0332558
0.0330073
0.0326464
0.0321814
0.0316218
0.030978
0.0302609
0.0294816
0.0286513
0.0277807
0.0268807
0.0259613
0.0250323
0.0241028
0.0231813
0.0222759
0.0213937
0.0205413
0.0197243
0.0189477
0.0182157
0.0175314
0.0168975
0.0163165
0.0157895
0.0153159
0.014896
0.0145292
0.0142134
0.0139472
0.0137281
0.013553
0.0134195
0.013324
0.0132631
0.0132336
0.013232
0.0132551
0.0132999
0.0133604
0.0134257
0.0134886
0.0135486
0.0379105
0.037973
0.0380427
0.038096
0.0380597
0.0378839
0.0375722
0.0371323
0.0365741
0.0359088
0.0351488
0.0343068
0.0333956
0.032428
0.0314167
0.0303737
0.0293106
0.0282384
0.0271673
0.026107
0.0250662
0.0240531
0.0230747
0.0221374
0.0212464
0.0204063
0.0196206
0.018892
0.0182231
0.0176151
0.0170672
0.0165796
0.0161515
0.0157806
0.0154651
0.0152023
0.0149887
0.0148215
0.0146969
0.0146109
0.0145601
0.0145405
0.0145488
0.0145814
0.0146319
0.0146883
0.0147426
0.0147945
0.0426394
0.0426908
0.0427481
0.0427851
0.0427195
0.0424962
0.0421197
0.0415991
0.0409461
0.0401737
0.0392961
0.0383279
0.0372837
0.0361779
0.035025
0.0338383
0.0326309
0.031415
0.030202
0.0290025
0.0278262
0.026682
0.0255776
0.0245198
0.0235144
0.0225662
0.0216789
0.0208554
0.0200985
0.0194092
0.0187867
0.0182309
0.017741
0.0173144
0.016949
0.0166417
0.0163888
0.0161871
0.0160324
0.0159204
0.0158471
0.0158085
0.0158008
0.01582
0.0158593
0.0159057
0.0159505
0.0159932
0.0472207
0.0472607
0.0473053
0.0473254
0.0472305
0.0469601
0.0465197
0.04592
0.0451741
0.044297
0.0433045
0.0422131
0.0410391
0.0397988
0.0385079
0.0371814
0.0358337
0.0344781
0.0331272
0.0317926
0.0304847
0.0292132
0.0279864
0.0268117
0.0256953
0.0246421
0.0236563
0.0227407
0.0218982
0.02113
0.0204349
0.0198127
0.0192626
0.0187816
0.0183673
0.0180165
0.017725
0.0174893
0.0173047
0.0171669
0.0170713
0.0170136
0.0169896
0.0169952
0.0170229
0.0170588
0.0170937
0.0171269
0.0515324
0.0515613
0.0515935
0.0515974
0.0514745
0.0511594
0.0506585
0.0499838
0.04915
0.0481739
0.0470729
0.0458652
0.0445688
0.0432014
0.0417804
0.0403221
0.038842
0.0373548
0.0358739
0.0344119
0.03298
0.0315886
0.0302466
0.0289618
0.0277407
0.0265887
0.02551
0.0245076
0.0235845
0.0227418
0.0219782
0.0212935
0.0206866
0.0201542
0.0196938
0.0193017
0.0189736
0.0187056
0.0184928
0.0183303
0.0182134
0.0181374
0.0180979
0.0180903
0.0181069
0.0181327
0.0181579
0.0181819
0.0554807
0.0554995
0.0555205
0.0555096
0.0553612
0.0550052
0.0544489
0.0537056
0.0527915
0.0517247
0.0505244
0.0492102
0.0478017
0.046318
0.0447779
0.0431988
0.0415976
0.0399898
0.0383899
0.0368112
0.0352657
0.0337645
0.0323169
0.0309312
0.0296143
0.0283718
0.027208
0.0261261
0.0251292
0.0242183
0.023392
0.0226499
0.021991
0.0214115
0.0209089
0.0204791
0.0201175
0.01982
0.0195813
0.0193963
0.0192599
0.0191672
0.0191135
0.019094
0.0191004
0.019117
0.0191334
0.0191491
0.0590064
0.0590166
0.059028
0.0590043
0.0588334
0.0584414
0.0578361
0.057032
0.0560466
0.0548993
0.0536107
0.0522018
0.0506934
0.0491062
0.0474599
0.0457732
0.0440639
0.0423486
0.0406425
0.0389597
0.037313
0.0357137
0.0341719
0.0326962
0.0312937
0.0299704
0.0287307
0.0275778
0.026515
0.0255433
0.0246611
0.023868
0.0231627
0.0225414
0.0220012
0.021538
0.0211466
0.020823
0.0205615
0.0203566
0.0202032
0.0200958
0.0200297
0.0199998
0.0199974
0.0200061
0.020015
0.0200234
0.0620847
0.0620879
0.0620914
0.0620571
0.0618674
0.0614446
0.0607973
0.0599408
0.0588937
0.0576768
0.0563116
0.0548206
0.0532257
0.0515485
0.0498098
0.0480295
0.0462263
0.0444173
0.0426187
0.0408452
0.0391101
0.0374254
0.0358014
0.0342472
0.0327701
0.0313763
0.0300704
0.0288557
0.0277355
0.0267108
0.02578
0.0249425
0.024197
0.0235394
0.0229667
0.0224745
0.0220576
0.0217116
0.0214305
0.0212087
0.0210407
0.0209211
0.0208446
0.0208061
0.0207965
0.0207987
0.0208015
0.0208041
0.0647197
0.0647174
0.064715
0.0646724
0.0644674
0.0640191
0.0633365
0.062436
0.061337
0.0600612
0.0586314
0.0570707
0.0554022
0.0536486
0.0518315
0.0499715
0.0480881
0.0461993
0.0443218
0.0424709
0.0406604
0.0389026
0.0372085
0.0355871
0.0340463
0.0325922
0.0312298
0.0299623
0.0287931
0.0277232
0.026751
0.0258757
0.025096
0.0244077
0.0238075
0.023291
0.0228525
0.0224877
0.0221904
0.0219546
0.0217748
0.0216451
0.0215603
0.0215151
0.0214999
0.0214971
0.0214952
0.0214933
0.0669372
0.0669311
0.0669243
0.0668755
0.0666584
0.0661895
0.0654783
0.0645416
0.0633999
0.0620753
0.0605918
0.0589733
0.0572436
0.0554262
0.0535436
0.051617
0.0496666
0.047711
0.0457674
0.0438515
0.0419777
0.0401587
0.0384056
0.0367279
0.0351335
0.0336289
0.032219
0.0309072
0.0296969
0.0285892
0.0275823
0.0266755
0.0258674
0.0251535
0.0245305
0.0239939
0.0235378
0.0231577
0.0228472
0.0226002
0.0224109
0.0222734
0.0221822
0.0221318
0.0221126
0.0221062
0.0221009
0.0220957
0.0687768
0.0687681
0.0687584
0.0687054
0.0684791
0.067994
0.0672598
0.0662941
0.0651176
0.0637535
0.0622262
0.0605604
0.0587806
0.056911
0.0549745
0.0529932
0.0509876
0.0489769
0.0469787
0.0450093
0.0430832
0.0412135
0.0394116
0.0376873
0.0360486
0.0345021
0.033053
0.0317046
0.0304604
0.0293216
0.0282861
0.0273535
0.026522
0.0257872
0.0251457
0.0245928
0.0241226
0.0237302
0.0234093
0.0231535
0.0229569
0.0228135
0.0227176
0.0226636
0.0226415
0.0226328
0.0226251
0.0226179
0.0702849
0.0702747
0.0702632
0.0702074
0.0699744
0.0694768
0.0687247
0.0677359
0.0665318
0.0651361
0.0635736
0.0618698
0.0600496
0.0581376
0.0561576
0.0541318
0.0520814
0.0500258
0.0479832
0.04597
0.0440013
0.0420902
0.0402485
0.0384861
0.0368112
0.0352306
0.0337493
0.032371
0.0310993
0.029935
0.0288764
0.0279228
0.0270724
0.0263209
0.0256646
0.0250987
0.0246173
0.0242153
0.0238863
0.0236238
0.0234218
0.023274
0.0231748
0.0231184
0.0230946
0.0230845
0.0230755
0.023067
0.071509
0.0714981
0.0714859
0.0714285
0.0711907
0.0706838
0.0699178
0.0689111
0.0676854
0.0662647
0.0646743
0.0629402
0.0610877
0.059142
0.057127
0.0550656
0.0529791
0.0508875
0.048809
0.0467606
0.0447574
0.0428129
0.040939
0.0391457
0.0374416
0.0358333
0.0343262
0.0329238
0.0316297
0.030445
0.0293678
0.0283973
0.027532
0.0267671
0.0260991
0.025523
0.0250328
0.0246235
0.0242884
0.0240209
0.0238149
0.0236642
0.0235628
0.0235049
0.0234802
0.0234694
0.0234599
0.0234508
0.0724947
0.0724838
0.0724715
0.0724134
0.0721725
0.0716586
0.0708822
0.0698617
0.0686192
0.067179
0.0655669
0.0638089
0.061931
0.0599585
0.0579158
0.055826
0.0537108
0.0515904
0.0494834
0.0474067
0.0453759
0.0434046
0.0415049
0.0396869
0.0379593
0.0363289
0.034801
0.0333792
0.0320674
0.0308664
0.0297744
0.0287906
0.0279133
0.0271379
0.0264607
0.0258768
0.02538
0.0249651
0.0246254
0.0243544
0.0241456
0.0239928
0.0238901
0.0238315
0.0238066
0.0237958
0.0237861
0.023777
0.0732835
0.0732729
0.073261
0.0732029
0.07296
0.0724412
0.071657
0.0706261
0.0693707
0.0679154
0.0662863
0.0645098
0.062612
0.0606185
0.058554
0.0564418
0.0543039
0.0521607
0.050031
0.0479319
0.0458792
0.0438866
0.0419663
0.0401287
0.0383824
0.0367343
0.0351899
0.0337528
0.0324268
0.0312129
0.0301091
0.0291148
0.0282283
0.0274447
0.0267605
0.0261705
0.0256686
0.0252496
0.0249066
0.024633
0.0244224
0.0242685
0.0241651
0.0241063
0.0240816
0.0240711
0.0240618
0.0240529
0.0739113
0.0739013
0.0738902
0.0738325
0.0735885
0.0730663
0.0722764
0.0712377
0.0699725
0.0685058
0.0668636
0.0650728
0.0631595
0.0611496
0.0590681
0.0569384
0.0547827
0.0526215
0.0504739
0.0483571
0.046287
0.0442776
0.042341
0.0404878
0.0387267
0.0370646
0.0355071
0.0340579
0.0327207
0.0314967
0.0303838
0.0293813
0.0284875
0.0276976
0.0270079
0.0264134
0.0259077
0.0254857
0.0251404
0.0248651
0.0246533
0.0244987
0.0243952
0.0243366
0.0243124
0.0243025
0.0242938
0.0242855
0.0744089
0.0743998
0.0743897
0.0743326
0.0740882
0.0735637
0.0727697
0.0717252
0.0704528
0.0689773
0.0673252
0.0655233
0.0635981
0.0615755
0.0594808
0.0573374
0.0551677
0.0529925
0.0508309
0.0487002
0.0466165
0.0445938
0.0426444
0.0407789
0.0390061
0.037333
0.0357652
0.0343065
0.0329605
0.0317285
0.0306084
0.0295995
0.0287001
0.0279054
0.0272117
0.0266137
0.0261052
0.0256811
0.0253341
0.0250578
0.0248454
0.0246906
0.0245871
0.024529
0.0245055
0.0244963
0.0244884
0.0244808
0.0748022
0.074794
0.0747849
0.0747287
0.0744842
0.0739582
0.0731614
0.0721127
0.0708348
0.0693529
0.0676932
0.0658829
0.0639485
0.0619162
0.0598112
0.0576572
0.0554767
0.0532906
0.0511179
0.0489764
0.046882
0.0448488
0.0428894
0.0410143
0.0392323
0.0375506
0.0359747
0.0345084
0.0331557
0.0319174
0.0307918
0.029778
0.0288743
0.0280759
0.027379
0.0267786
0.0262681
0.0258424
0.0254944
0.0252174
0.0250047
0.0248499
0.0247469
0.0246894
0.0246666
0.0246583
0.0246511
0.0246443
0.0751121
0.0751049
0.0750968
0.0750416
0.0747974
0.0742705
0.0734718
0.0724201
0.0711382
0.0696513
0.067986
0.0661693
0.0642279
0.0621881
0.0600752
0.0579131
0.0557242
0.0535295
0.0513484
0.0491984
0.0470956
0.0450543
0.043087
0.0412043
0.0394151
0.0377266
0.0361444
0.0346723
0.0333142
0.0320712
0.0309412
0.0299236
0.0290166
0.0282154
0.0275163
0.0269139
0.026402
0.0259753
0.0256267
0.0253493
0.0251366
0.0249821
0.0248795
0.0248227
0.0248008
0.0247933
0.024787
0.024781
0.0753559
0.0753496
0.0753425
0.0752883
0.0750445
0.0745173
0.0737172
0.0726634
0.0713786
0.0698881
0.0682186
0.0663971
0.0644504
0.0624049
0.0602859
0.0581175
0.0559221
0.0537209
0.0515331
0.0493765
0.0472672
0.0452195
0.0432461
0.0413575
0.0395627
0.0378689
0.0362818
0.0348051
0.0334429
0.0321961
0.0310628
0.0300423
0.0291328
0.0283295
0.0276287
0.027025
0.0265121
0.0260847
0.0257357
0.0254582
0.0252457
0.0250915
0.0249895
0.0249334
0.0249123
0.0249057
0.0249002
0.0248949
0.0755473
0.0755419
0.0755358
0.0754826
0.0752393
0.0747119
0.073911
0.0728558
0.0715689
0.0700758
0.0684031
0.066578
0.0646273
0.0625775
0.0604539
0.0582806
0.0560803
0.0538739
0.051681
0.0495193
0.0474049
0.0453524
0.0433741
0.0414809
0.0396817
0.0379838
0.0363929
0.0349127
0.0335472
0.0322975
0.0311617
0.030139
0.0292276
0.0284228
0.0277206
0.027116
0.0266025
0.0261747
0.0258255
0.0255481
0.0253358
0.025182
0.0250806
0.0250252
0.0250048
0.0249991
0.0249943
0.0249898
0.0756974
0.0756928
0.0756877
0.0756354
0.0753927
0.0748653
0.074064
0.0730077
0.0717194
0.0702244
0.0685494
0.0667216
0.0647679
0.0627148
0.0605877
0.0584107
0.0562066
0.0539963
0.0517994
0.0496338
0.0475155
0.045459
0.043477
0.0415803
0.0397777
0.0380766
0.0364827
0.0349997
0.0336318
0.0323799
0.0312421
0.0302177
0.0293049
0.0284989
0.0277959
0.0271906
0.0266766
0.0262486
0.0258994
0.0256221
0.0254101
0.0252568
0.0251559
0.0251011
0.0250816
0.0250765
0.0250725
0.0250687
0.0758151
0.0758112
0.0758069
0.0757554
0.0755133
0.0749861
0.0741846
0.0731277
0.0718384
0.070342
0.0686653
0.0668355
0.0648796
0.062824
0.0606943
0.0585145
0.0563074
0.0540941
0.0518942
0.0497254
0.0476041
0.0455447
0.0435598
0.0416602
0.039855
0.0381515
0.0365552
0.0350702
0.0337003
0.0324467
0.0313074
0.0302817
0.0293679
0.028561
0.0278574
0.0272516
0.0267374
0.0263093
0.0259601
0.025683
0.0254714
0.0253185
0.0252181
0.025164
0.0251451
0.0251408
0.0251374
0.0251342
0.0759072
0.075904
0.0759004
0.0758497
0.0756082
0.0750812
0.0742796
0.0732224
0.0719324
0.0704351
0.0687572
0.0669259
0.0649683
0.0629109
0.0607791
0.0585972
0.0563878
0.0541723
0.05197
0.0497989
0.0476752
0.0456135
0.0436264
0.0417246
0.0399174
0.0382119
0.0366138
0.0351271
0.0337558
0.0325009
0.0313605
0.0303338
0.0294192
0.0286117
0.0279076
0.0273016
0.0267872
0.0263591
0.02601
0.0257332
0.0255219
0.0253694
0.0252696
0.025216
0.0251977
0.025194
0.0251912
0.0251885
0.0759793
0.0759767
0.0759738
0.0759237
0.0756827
0.0751561
0.0743545
0.0732971
0.0720067
0.0705087
0.0688299
0.0669976
0.0650387
0.0629799
0.0608467
0.0586631
0.0564521
0.0542347
0.0520306
0.0498577
0.0477322
0.0456687
0.0436799
0.0417765
0.0399676
0.0382606
0.0366612
0.0351732
0.0338007
0.0325448
0.0314036
0.0303762
0.029461
0.0286531
0.0279487
0.0273425
0.026828
0.0263999
0.026051
0.0257744
0.0255634
0.0254114
0.025312
0.0252589
0.0252412
0.025238
0.0252357
0.0252336
0.0760357
0.0760336
0.0760313
0.0759818
0.0757413
0.075215
0.0744135
0.073356
0.0720653
0.0705669
0.0688875
0.0670544
0.0650947
0.0630348
0.0609004
0.0587156
0.0565033
0.0542846
0.0520792
0.0499049
0.047778
0.0457131
0.0437229
0.0418182
0.0400081
0.0383
0.0366995
0.0352105
0.0338372
0.0325805
0.0314386
0.0304107
0.0294951
0.0286868
0.0279822
0.0273759
0.0268614
0.0264334
0.0260847
0.0258084
0.0255977
0.025446
0.025347
0.0252944
0.0252772
0.0252745
0.0252726
0.0252709
0.0760797
0.0760781
0.0760763
0.0760274
0.0757873
0.0752613
0.0744599
0.0734024
0.0721116
0.0706129
0.068933
0.0670994
0.0651391
0.0630785
0.0609432
0.0587575
0.0565442
0.0543245
0.052118
0.0499426
0.0478147
0.0457487
0.0437575
0.0418518
0.0400407
0.0383317
0.0367304
0.0352407
0.0338667
0.0326095
0.0314671
0.0304387
0.0295228
0.0287144
0.0280096
0.0274033
0.0268888
0.0264609
0.0261124
0.0258363
0.0256258
0.0254745
0.0253759
0.0253237
0.0253069
0.0253046
0.0253032
0.0253018
0.0761142
0.076113
0.0761116
0.0760632
0.0758235
0.0752977
0.0744965
0.073439
0.0721481
0.0706492
0.0689691
0.0671352
0.0651743
0.0631132
0.0609773
0.0587909
0.0565769
0.0543564
0.0521491
0.0499729
0.0478441
0.0457773
0.0437853
0.0418788
0.0400671
0.0383574
0.0367554
0.0352652
0.0338906
0.032633
0.0314902
0.0304616
0.0295454
0.0287368
0.028032
0.0274257
0.0269113
0.0264835
0.0261351
0.0258592
0.025649
0.025498
0.0253997
0.0253479
0.0253314
0.0253295
0.0253284
0.0253274
0.0761411
0.0761403
0.0761393
0.0760912
0.0758518
0.0753263
0.0745253
0.0734679
0.072177
0.070678
0.0689977
0.0671635
0.0652023
0.0631408
0.0610044
0.0588175
0.0566029
0.0543819
0.0521739
0.0499971
0.0478677
0.0458004
0.0438077
0.0419006
0.0400883
0.0383781
0.0367756
0.035285
0.03391
0.032652
0.031509
0.0304802
0.0295639
0.0287552
0.0280503
0.027444
0.0269297
0.026502
0.0261538
0.0258781
0.0256681
0.0255173
0.0254193
0.0253678
0.0253517
0.0253501
0.0253493
0.0253486
0.0761622
0.0761616
0.076161
0.0761132
0.0758742
0.0753489
0.074548
0.0734907
0.0721998
0.0707008
0.0690204
0.0671859
0.0652245
0.0631627
0.061026
0.0588388
0.0566238
0.0544022
0.0521939
0.0500166
0.0478867
0.0458188
0.0438257
0.0419182
0.0401054
0.0383948
0.036792
0.035301
0.0339258
0.0326675
0.0315243
0.0304953
0.0295789
0.0287702
0.0280653
0.027459
0.0269447
0.0265172
0.0261691
0.0258936
0.0256839
0.0255333
0.0254355
0.0253843
0.0253684
0.0253671
0.0253666
0.0253661
0.0761786
0.0761783
0.0761779
0.0761305
0.0758917
0.0753666
0.0745659
0.0735086
0.0722178
0.0707187
0.0690383
0.0672037
0.0652422
0.0631801
0.0610432
0.0588557
0.0566404
0.0544185
0.0522098
0.0500322
0.0479019
0.0458337
0.0438402
0.0419324
0.0401193
0.0384083
0.0368052
0.035314
0.0339385
0.0326801
0.0315367
0.0305076
0.0295912
0.0287824
0.0280775
0.0274713
0.0269571
0.0265297
0.0261817
0.0259063
0.0256968
0.0255464
0.0254489
0.0253979
0.0253822
0.0253812
0.0253809
0.0253806
0.0761915
0.0761914
0.0761913
0.0761441
0.0759054
0.0753805
0.0745799
0.0735228
0.072232
0.0707329
0.0690525
0.0672179
0.0652562
0.063194
0.0610569
0.0588692
0.0566537
0.0544316
0.0522226
0.0500447
0.0479142
0.0458457
0.0438519
0.0419438
0.0401304
0.0384192
0.0368159
0.0353245
0.0339489
0.0326903
0.0315468
0.0305177
0.0296012
0.0287924
0.0280875
0.0274813
0.0269672
0.0265399
0.026192
0.0259168
0.0257074
0.0255572
0.0254599
0.0254091
0.0253936
0.0253928
0.0253927
0.0253926
0.107997
0.107997
0.107997
0.107997
0.107997
0.107997
0.107997
0.107997
0.107997
0.107997
0.107997
0.107997
0.107997
0.107096
0.102629
0.0944966
0.0853836
0.0764405
0.0679783
0.0602433
0.0533943
0.0474993
0.0425483
0.0384756
0.0351825
0.0325565
0.0304858
0.0288672
0.0276107
0.0266405
0.108101
0.108101
0.108102
0.108102
0.108102
0.108103
0.108103
0.108103
0.108104
0.108104
0.108104
0.108105
0.108105
0.107204
0.102734
0.0946017
0.0854902
0.0765489
0.0680886
0.0603555
0.0535084
0.0476149
0.0426652
0.0385935
0.0353012
0.0326758
0.0306055
0.0289873
0.027731
0.0267609
0.108209
0.108211
0.108212
0.108213
0.108214
0.108216
0.108217
0.108218
0.108219
0.10822
0.108221
0.108222
0.108224
0.107323
0.102853
0.0947215
0.0856122
0.0766735
0.0682159
0.0604854
0.0536405
0.047749
0.0428009
0.0387306
0.0354393
0.0328148
0.0307451
0.0291273
0.0278714
0.0269016
0.108326
0.108329
0.108332
0.108334
0.108337
0.108339
0.108342
0.108344
0.108346
0.108349
0.108351
0.108354
0.108357
0.107457
0.102988
0.0948588
0.0857528
0.0768175
0.0683632
0.0606359
0.0537939
0.0479048
0.0429588
0.0388902
0.0356002
0.0329767
0.0309079
0.0292908
0.0280354
0.0270659
0.108455
0.108459
0.108464
0.108468
0.108473
0.108477
0.108481
0.108485
0.108489
0.108493
0.108498
0.108502
0.108508
0.10761
0.103143
0.0950173
0.0859155
0.0769844
0.0685342
0.0608108
0.0539722
0.0480861
0.0431427
0.0390761
0.0357878
0.0331656
0.0310979
0.0294815
0.0282267
0.0272578
0.108598
0.108606
0.108613
0.10862
0.108627
0.108633
0.10864
0.108646
0.108652
0.108658
0.108665
0.108672
0.10868
0.107786
0.103322
0.0952007
0.0861041
0.0771783
0.0687331
0.0610143
0.0541799
0.0482974
0.043357
0.0392929
0.0360066
0.0333861
0.0313196
0.0297042
0.0284502
0.0274819
0.108762
0.108772
0.108783
0.108793
0.108802
0.108812
0.108821
0.10883
0.108839
0.108848
0.108857
0.108867
0.108879
0.107989
0.103529
0.0954139
0.0863236
0.0774039
0.0689647
0.0612514
0.0544219
0.0485437
0.0436069
0.0395458
0.036262
0.0336434
0.0315784
0.0299642
0.0287111
0.0277435
0.10895
0.108964
0.108978
0.108992
0.109005
0.109018
0.10903
0.109043
0.109055
0.109067
0.10908
0.109094
0.10911
0.108224
0.10377
0.0956621
0.0865793
0.077667
0.0692349
0.061528
0.0547043
0.0488312
0.0438986
0.0398411
0.0365601
0.0339438
0.0318806
0.0302679
0.0290159
0.0280491
0.109168
0.109187
0.109205
0.109223
0.10924
0.109257
0.109274
0.10929
0.109306
0.109322
0.109339
0.109357
0.109378
0.108498
0.104052
0.0959518
0.0868777
0.0779741
0.0695502
0.061851
0.0550341
0.0491668
0.0442392
0.0401858
0.0369082
0.0342946
0.0322335
0.0306225
0.0293718
0.028406
0.109422
0.109447
0.10947
0.109493
0.109515
0.109537
0.109558
0.109579
0.1096
0.10962
0.109641
0.109665
0.109692
0.108819
0.104381
0.0962903
0.0872264
0.0783329
0.0699186
0.0622283
0.0554192
0.0495588
0.0446371
0.0405885
0.0373148
0.0347043
0.0326457
0.0310366
0.0297874
0.0288228
0.109721
0.109752
0.109781
0.10981
0.109838
0.109865
0.109892
0.109918
0.109944
0.109969
0.109995
0.110025
0.110059
0.109194
0.104765
0.0966864
0.0876344
0.0787526
0.0703494
0.0626693
0.0558694
0.0500169
0.0451019
0.0410588
0.0377897
0.0351828
0.0331272
0.0315203
0.0302729
0.0293096
0.110073
0.110111
0.110147
0.110182
0.110217
0.11025
0.110283
0.110315
0.110347
0.110379
0.110411
0.110447
0.110489
0.109634
0.105216
0.0971502
0.0881119
0.0792436
0.0708533
0.063185
0.0563956
0.0505523
0.0456451
0.0416085
0.0383446
0.0357419
0.0336896
0.0320853
0.0308399
0.0298782
0.110488
0.110534
0.110578
0.110621
0.110663
0.110703
0.110743
0.110783
0.110821
0.11086
0.110899
0.110943
0.110994
0.110149
0.105745
0.0976938
0.0886712
0.0798185
0.0714429
0.0637882
0.057011
0.0511783
0.0462799
0.0422508
0.0389929
0.0363951
0.0343466
0.0327453
0.0315023
0.0305424
0.110979
0.111034
0.111087
0.111139
0.111189
0.111238
0.111286
0.111333
0.11138
0.111426
0.111473
0.111526
0.111587
0.110754
0.106365
0.0983311
0.0893267
0.0804917
0.0721332
0.0644941
0.0577308
0.0519102
0.0470221
0.0430014
0.0397505
0.0371582
0.0351141
0.0335163
0.0322759
0.0313181
0.11156
0.111626
0.111689
0.11175
0.11181
0.111869
0.111926
0.111982
0.112037
0.112092
0.112149
0.112212
0.112285
0.111465
0.107093
0.0990788
0.0900951
0.0812806
0.0729414
0.0653202
0.0585729
0.0527661
0.0478898
0.0438789
0.0406359
0.03805
0.0360109
0.034417
0.0331797
0.0322242
0.112249
0.112326
0.112401
0.112474
0.112544
0.112613
0.112681
0.112747
0.112813
0.112877
0.112944
0.113019
0.113105
0.112301
0.107947
0.0999562
0.0909961
0.082205
0.073888
0.0662873
0.0595582
0.0537673
0.0489044
0.0449046
0.0416706
0.039092
0.0370586
0.0354693
0.0342355
0.0332827
0.113066
0.113157
0.113244
0.113329
0.113412
0.113493
0.113572
0.11365
0.113727
0.113803
0.113881
0.113969
0.11407
0.113284
0.108952
0.100986
0.0920531
0.0832885
0.0749969
0.0674195
0.0607113
0.0549384
0.0500908
0.0461037
0.0428801
0.0403097
0.0382829
0.0366987
0.0354689
0.0345192
0.114035
0.114141
0.114243
0.114342
0.114439
0.114533
0.114625
0.114716
0.114806
0.114895
0.114986
0.115088
0.115206
0.114439
0.110132
0.102195
0.093293
0.0845588
0.0762961
0.0687452
0.0620608
0.0563085
0.0514783
0.0475057
0.0442938
0.0417329
0.0397135
0.0381351
0.0369098
0.0359637
0.115185
0.115308
0.115426
0.115541
0.115653
0.115763
0.11587
0.115975
0.116079
0.116182
0.116288
0.116406
0.116543
0.115798
0.111519
0.103615
0.0947481
0.0860484
0.0778185
0.0702978
0.0636403
0.0579115
0.0531012
0.0491449
0.0459464
0.0433962
0.0413853
0.0398136
0.0385935
0.0376513
0.11655
0.116692
0.116829
0.116962
0.117091
0.117217
0.117341
0.117462
0.117582
0.117701
0.117823
0.11796
0.118117
0.117397
0.113149
0.105283
0.0964559
0.0877953
0.0796027
0.0721164
0.0654895
0.0597872
0.0549994
0.0510618