/*--------------------------------*- C++ -*----------------------------------*\
| =========                 |                                                 |
| \\      /  F ield         | OpenFOAM: The Open Source CFD Toolbox           |
|  \\    /   O peration     | Version:  2212                                  |
|   \\  /    A nd           | Website:  www.openfoam.com                      |
|    \\/     M anipulation  |                                                 |
\*---------------------------------------------------------------------------*/
FoamFile
{
    version     2.0;
    format      ascii;
    arch        "LSB;label=32;scalar=64";
    class       volScalarField;
    location    "0.064";
    object      nut;
}
// * * * * * * * * * * * * * * * * * * * * * * * * * * * * * * * * * * * * * //

dimensions      [0 2 -1 0 0 0 0];

internalField   nonuniform List<scalar> 
18080
(
3.5042931e-05
1.2353789e-05
8.0157013e-06
5.9272928e-06
4.6450255e-06
3.7852928e-06
3.1787789e-06
2.7324797e-06
2.3931094e-06
2.1287208e-06
1.9188648e-06
1.7496995e-06
1.6115033e-06
1.4972694e-06
1.4019129e-06
1.3216844e-06
1.253845e-06
1.196455e-06
1.1484774e-06
1.1117889e-06
1.0778799e-06
1.0466939e-06
1.0194576e-06
9.9643695e-07
9.7768359e-07
9.6326334e-07
9.5333293e-07
9.4811915e-07
9.4804863e-07
9.5369035e-07
9.6583611e-07
9.855466e-07
1.0142415e-06
1.0537021e-06
1.1063423e-06
1.1752538e-06
1.2644618e-06
1.3792818e-06
1.5266139e-06
1.7153939e-06
1.9570075e-06
2.2654807e-06
2.6571598e-06
3.149534e-06
3.7589639e-06
4.4947757e-06
5.3570748e-06
6.3224811e-06
3.1252124e-05
1.2417024e-05
8.1836769e-06
6.0790425e-06
4.7745715e-06
3.8967979e-06
3.2756969e-06
2.817238e-06
2.4674438e-06
2.1939013e-06
1.9758282e-06
1.7991216e-06
1.6538487e-06
1.5328443e-06
1.4308795e-06
1.3440811e-06
1.2695589e-06
1.2051187e-06
1.1490655e-06
1.0998336e-06
1.0571202e-06
1.0204305e-06
9.8914961e-07
9.6286049e-07
9.4133653e-07
9.2449016e-07
9.1238362e-07
9.0519913e-07
9.0325256e-07
9.0719708e-07
9.1770746e-07
9.3572213e-07
9.626436e-07
1.0002367e-06
1.0507458e-06
1.1173661e-06
1.204017e-06
1.3160614e-06
1.4603643e-06
1.6457059e-06
1.8830159e-06
2.1852195e-06
2.5663232e-06
3.0392095e-06
3.6117209e-06
4.2794818e-06
5.0232785e-06
5.7914714e-06
3.1531854e-05
1.2618598e-05
8.2731672e-06
6.1299548e-06
4.8057417e-06
3.9160885e-06
3.2872088e-06
2.8234938e-06
2.4701357e-06
2.1942162e-06
1.9746267e-06
1.7970496e-06
1.6514074e-06
1.530435e-06
1.4288294e-06
1.3426601e-06
1.2689941e-06
1.2056125e-06
1.1508184e-06
1.103201e-06
1.0622529e-06
1.0271969e-06
9.9744135e-07
9.7264867e-07
9.5262997e-07
9.37285e-07
9.2661082e-07
9.207716e-07
9.2009446e-07
9.2521064e-07
9.3680104e-07
9.5581535e-07
9.83652e-07
1.0220835e-06
1.0733823e-06
1.1407824e-06
1.2282528e-06
1.3412436e-06
1.4867341e-06
1.6736692e-06
1.9132266e-06
2.2187221e-06
2.6048096e-06
3.0854421e-06
3.6702475e-06
4.3575451e-06
5.1315741e-06
5.9371541e-06
3.0069778e-05
1.2558671e-05
8.2652889e-06
6.1338868e-06
4.8128432e-06
3.9240112e-06
3.2952149e-06
2.8312712e-06
2.4774962e-06
2.2010204e-06
1.9807644e-06
1.8024322e-06
1.6559617e-06
1.5340994e-06
1.431552e-06
1.3443981e-06
1.2697152e-06
1.205301e-06
1.1495036e-06
1.1011287e-06
1.05913e-06
1.0228034e-06
9.9170357e-07
9.6553731e-07
9.4413744e-07
9.2746504e-07
9.1562922e-07
9.0880624e-07
9.0732098e-07
9.1174581e-07
9.2273796e-07
9.4123033e-07
9.6857206e-07
1.0064716e-06
1.0571874e-06
1.1238623e-06
1.2104465e-06
1.322348e-06
1.4665513e-06
1.6520955e-06
1.8904271e-06
2.1954774e-06
2.5831562e-06
3.0697433e-06
3.6687456e-06
4.3843735e-06
5.2093715e-06
6.0918205e-06
2.9160115e-05
1.2583172e-05
8.2893247e-06
6.1526414e-06
4.8272208e-06
3.9349365e-06
3.3034324e-06
2.8373535e-06
2.4819002e-06
2.2041194e-06
1.9828649e-06
1.8037846e-06
1.6567714e-06
1.534538e-06
1.4317638e-06
1.3445038e-06
1.2698168e-06
1.2054813e-06
1.1498173e-06
1.1015481e-06
1.0597441e-06
1.0237315e-06
9.9301745e-07
9.6726798e-07
9.4629196e-07
9.3003597e-07
9.1859616e-07
9.121277e-07
9.1094018e-07
9.1561098e-07
9.2680386e-07
9.4546122e-07
9.7295332e-07
1.0110237e-06
1.061962e-06
1.1289793e-06
1.2161005e-06
1.3288605e-06
1.4744343e-06
1.6621654e-06
1.9039964e-06
2.2146731e-06
2.6114389e-06
3.1127005e-06
3.7352761e-06
4.4882301e-06
5.3710258e-06
6.331672e-06
2.7515905e-05
1.2526485e-05
8.284763e-06
6.1573318e-06
4.8337544e-06
3.9413472e-06
3.3092395e-06
2.8424979e-06
2.4864317e-06
2.2081021e-06
1.9863507e-06
1.8068105e-06
1.6593618e-06
1.5367095e-06
1.4335279e-06
1.345869e-06
1.2707912e-06
1.2060746e-06
1.1500445e-06
1.1014426e-06
1.0593256e-06
1.0230023e-06
9.9198179e-07
9.6594129e-07
9.4469703e-07
9.2818778e-07
9.1648384e-07
9.097405e-07
9.0827738e-07
9.1267037e-07
9.2357806e-07
9.4194039e-07
9.6911948e-07
1.0068445e-06
1.0573998e-06
1.1239848e-06
1.2106238e-06
1.3228649e-06
1.4679241e-06
1.6552505e-06
1.897017e-06
2.2084389e-06
2.6076726e-06
3.1147987e-06
3.7494617e-06
4.525217e-06
5.4490513e-06
6.4726129e-06
2.5330099e-05
1.2416451e-05
8.269615e-06
6.1597321e-06
4.8401966e-06
3.9482375e-06
3.3155648e-06
2.8480085e-06
2.4911209e-06
2.2120414e-06
1.9896323e-06
1.809526e-06
1.6615956e-06
1.538537e-06
1.435016e-06
1.3470758e-06
1.2717678e-06
1.2068646e-06
1.1506844e-06
1.1019591e-06
1.05974e-06
1.0233358e-06
9.9225396e-07
9.6616631e-07
9.4488253e-07
9.2833748e-07
9.166023e-07
9.0983242e-07
9.0834634e-07
9.1271567e-07
9.2359475e-07
9.41926e-07
9.6907578e-07
1.006779e-06
1.0573342e-06
1.1239657e-06
1.2107362e-06
1.3232679e-06
1.4688999e-06
1.6573017e-06
1.9010313e-06
2.2159736e-06
2.6214299e-06
3.1393697e-06
3.7923969e-06
4.5985137e-06
5.5716272e-06
6.6651161e-06
2.2794962e-05
1.2235236e-05
8.233695e-06
6.1541664e-06
4.8431764e-06
3.9535592e-06
3.321255e-06
2.853422e-06
2.4960689e-06
2.2164969e-06
1.9936207e-06
1.8130856e-06
1.6647637e-06
1.5413469e-06
1.4374962e-06
1.3492506e-06
1.2736587e-06
1.208491e-06
1.1520643e-06
1.1031099e-06
1.0606786e-06
1.0240776e-06
9.9281195e-07
9.6655152e-07
9.4510456e-07
9.2840477e-07
9.1652099e-07
9.0960505e-07
9.0797536e-07
9.1219823e-07
9.22922e-07
9.4108968e-07
9.6806622e-07
1.005581e-06
1.0559374e-06
1.1223648e-06
1.2089443e-06
1.3213417e-06
1.4669775e-06
1.6556849e-06
1.9003273e-06
2.2173473e-06
2.6270373e-06
3.1530491e-06
3.8206191e-06
4.6516988e-06
5.6667878e-06
6.8210243e-06
2.0057191e-05
1.1958067e-05
8.1684362e-06
6.1381659e-06
4.8424018e-06
3.9577508e-06
3.3269511e-06
2.8593679e-06
2.5018012e-06
2.221853e-06
1.9985554e-06
1.817599e-06
1.6688727e-06
1.5450755e-06
1.4408705e-06
1.352297e-06
1.276403e-06
1.2109581e-06
1.1542777e-06
1.1050914e-06
1.0624481e-06
1.025653e-06
9.9420901e-07
9.6778411e-07
9.4618435e-07
9.2934133e-07
9.1732142e-07
9.1027343e-07
9.0851659e-07
9.1261285e-07
9.2320459e-07
9.4123662e-07
9.6807455e-07
1.0054449e-06
1.0556609e-06
1.1219643e-06
1.2084669e-06
1.3208977e-06
1.4667912e-06
1.6561967e-06
1.9023687e-06
2.2224419e-06
2.6379043e-06
3.1743779e-06
3.8600789e-06
4.721285e-06
5.7854746e-06
7.0086043e-06
1.7309002e-05
1.15609e-05
8.0623513e-06
6.1069e-06
4.8358729e-06
3.9599818e-06
3.3323556e-06
2.8658294e-06
2.5084725e-06
2.2283851e-06
2.0048026e-06
1.8235009e-06
1.6744067e-06
1.5502374e-06
1.4456657e-06
1.3567355e-06
1.2804986e-06
1.2147262e-06
1.1577352e-06
1.1082554e-06
1.0653359e-06
1.0282815e-06
9.965939e-07
9.6993999e-07
9.4812411e-07
9.3107631e-07
9.1886086e-07
9.1162337e-07
9.0968408e-07
9.1359936e-07
9.2400381e-07
9.4184328e-07
9.6848276e-07
1.0056425e-06
1.0556445e-06
1.1217391e-06
1.2080682e-06
1.3204246e-06
1.466462e-06
1.656463e-06
1.9041084e-06
2.227297e-06
2.6488416e-06
3.1965483e-06
3.9018794e-06
4.7956919e-06
5.9127385e-06
7.2094879e-06
1.474908e-05
1.1036192e-05
7.9052731e-06
6.0551239e-06
4.8213033e-06
3.9593683e-06
3.3372538e-06
2.8729312e-06
2.516386e-06
2.2364872e-06
2.0127958e-06
1.8312338e-06
1.6817982e-06
1.5572448e-06
1.4522684e-06
1.362927e-06
1.2862821e-06
1.2201111e-06
1.1627358e-06
1.1128888e-06
1.0696207e-06
1.0322369e-06
1.0002388e-06
9.7329215e-07
9.5120005e-07
9.3389102e-07
9.2142723e-07
9.139506e-07
9.1178235e-07
9.1547237e-07
9.2564605e-07
9.4325022e-07
9.6964912e-07
1.0065555e-06
1.0563015e-06
1.1221471e-06
1.2082708e-06
1.3205412e-06
1.466756e-06
1.6574794e-06
1.9069098e-06
2.2338758e-06
2.662807e-06
3.2241761e-06
3.9533833e-06
4.8867494e-06
6.0674032e-06
7.4521688e-06
1.2501124e-05
1.0395938e-05
7.6903814e-06
5.9777009e-06
4.7960525e-06
3.9547213e-06
3.3412124e-06
2.8806507e-06
2.5257556e-06
2.2465133e-06
2.0229718e-06
1.8412805e-06
1.6915526e-06
1.5666095e-06
1.4611862e-06
1.3713663e-06
1.2942296e-06
1.2275663e-06
1.1697073e-06
1.1193912e-06
1.0756727e-06
1.0378595e-06
1.0054532e-06
9.7811987e-07
9.5566131e-07
9.3800479e-07
9.2521044e-07
9.1741613e-07
9.1494403e-07
9.1833633e-07
9.282072e-07
9.4550372e-07
9.7158831e-07
1.0081631e-06
1.0575702e-06
1.1230774e-06
1.2089035e-06
1.3210011e-06
1.4673327e-06
1.6587902e-06
1.9101819e-06
2.2414487e-06
2.6789758e-06
3.2564994e-06
4.014267e-06
4.9952814e-06
6.2525901e-06
7.7439661e-06
1.0612523e-05
9.6744464e-06
7.4180375e-06
5.8711891e-06
4.7576429e-06
3.9446953e-06
3.3436253e-06
2.8888409e-06
2.5367242e-06
2.2587887e-06
2.0357662e-06
1.8541383e-06
1.704196e-06
1.5788639e-06
1.4729428e-06
1.3825586e-06
1.3048219e-06
1.2375445e-06
1.1790729e-06
1.1281567e-06
1.0838575e-06
1.0454873e-06
1.0125497e-06
9.8471175e-07
9.6177458e-07
9.4366417e-07
9.3043813e-07
9.2222919e-07
9.1935997e-07
9.2236323e-07
9.3184015e-07
9.4873782e-07
9.7441651e-07
1.0105647e-06
1.0595338e-06
1.1245969e-06
1.2100165e-06
1.3218366e-06
1.4682067e-06
1.6603972e-06
1.9139354e-06
2.2500965e-06
2.697655e-06
3.2944094e-06
4.0867615e-06
5.1262894e-06
6.4784709e-06
8.1037463e-06
9.0824526e-06
8.9262787e-06
7.1001852e-06
5.7363057e-06
4.7047559e-06
3.9281083e-06
3.3437607e-06
2.8971775e-06
2.5492791e-06
2.2735195e-06
2.0515283e-06
1.8702438e-06
1.7202124e-06
1.5945128e-06
1.4880447e-06
1.3969996e-06
1.3185359e-06
1.2504986e-06
1.1912591e-06
1.1395835e-06
1.0945451e-06
1.0554628e-06
1.0218432e-06
9.933549e-07
9.6979961e-07
9.5110417e-07
9.3732482e-07
9.285881e-07
9.2521512e-07
9.2772446e-07
9.3669923e-07
9.5308337e-07
9.782343e-07
1.0138234e-06
1.0622107e-06
1.1266716e-06
1.2115126e-06
1.3228716e-06
1.4690993e-06
1.6618852e-06
1.917575e-06
2.2590044e-06
2.7178129e-06
3.3368071e-06
4.1702156e-06
5.2807974e-06
6.7500695e-06
8.5446825e-06
7.8769597e-06
8.2093523e-06
6.7591537e-06
5.579138e-06
4.6380654e-06
3.904307e-06
3.3408773e-06
2.905162e-06
2.5632096e-06
2.2907342e-06
2.0704572e-06
1.8899076e-06
1.7399796e-06
1.6139687e-06
1.5069173e-06
1.4151122e-06
1.3357815e-06
1.2668198e-06
1.2066344e-06
1.1540164e-06
1.1080551e-06
1.0680818e-06
1.0336102e-06
1.0043099e-06
9.7997569e-07
9.6053284e-07
9.4603903e-07
9.3661949e-07
9.3260138e-07
9.3449397e-07
9.4286091e-07
9.586325e-07
9.8315427e-07
1.0180677e-06
1.0657347e-06
1.1294248e-06
1.2134856e-06
1.3241463e-06
1.4699631e-06
1.66307e-06
1.9207106e-06
2.2674899e-06
2.738401e-06
3.3823239e-06
4.2633962e-06
5.4591049e-06
7.0722264e-06
9.0822273e-06
6.9530448e-06
7.5712559e-06
6.4226216e-06
5.410502e-06
4.5603885e-06
3.8732355e-06
3.3341847e-06
2.9120355e-06
2.5779984e-06
2.3101623e-06
2.0924771e-06
1.9131912e-06
1.7636496e-06
1.637439e-06
1.5297983e-06
1.437147e-06
1.3568108e-06
1.2867539e-06
1.2254335e-06
1.1716784e-06
1.1245997e-06
1.0835322e-06
1.0480013e-06
1.0177107e-06
9.9245542e-07
9.7214708e-07
9.5682524e-07
9.4659423e-07
9.4174854e-07
9.4279701e-07
9.5032327e-07
9.6527133e-07
9.8898435e-07
1.0230594e-06
1.0698439e-06
1.132577e-06
1.215627e-06
1.3252915e-06
1.4703122e-06
1.663259e-06
1.9223043e-06
2.2739664e-06
2.757015e-06
3.4274755e-06
4.3617672e-06
5.6566018e-06
7.4431975e-06
9.724495e-06
6.2686669e-06
7.0435747e-06
6.1176361e-06
5.2438918e-06
4.476326e-06
3.8354856e-06
3.3229395e-06
2.9168532e-06
2.5928647e-06
2.3312436e-06
2.1172149e-06
1.9398634e-06
1.7910932e-06
1.6648641e-06
1.5566739e-06
1.4631185e-06
1.3816551e-06
1.3103421e-06
1.2477035e-06
1.1926018e-06
1.1442154e-06
1.101934e-06
1.0652469e-06
1.0337624e-06
1.0073297e-06
9.8590386e-07
9.6954396e-07
9.5836605e-07
9.5274845e-07
9.5305277e-07
9.5968762e-07
9.7364374e-07
9.9630852e-07
1.0292812e-06
1.0749218e-06
1.1364349e-06
1.2181915e-06
1.3265184e-06
1.4702887e-06
1.6624468e-06
1.9220454e-06
2.2775397e-06
2.7717282e-06
3.4686788e-06
4.4595232e-06
5.865462e-06
7.8554179e-06
1.0473179e-05
5.7875771e-06
6.6414638e-06
5.8643435e-06
5.0912931e-06
4.3902689e-06
3.7914805e-06
3.3061723e-06
2.9184178e-06
2.6067444e-06
2.3531027e-06
2.1439636e-06
1.9693524e-06
1.8218415e-06
1.6958528e-06
1.5872105e-06
1.4927376e-06
1.4100601e-06
1.3373478e-06
1.2732372e-06
1.2167252e-06
1.1668465e-06
1.1230013e-06
1.0848359e-06
1.0520547e-06
1.0244142e-06
1.0018344e-06
9.8437991e-07
9.7212639e-07
9.6536701e-07
9.6457631e-07
9.7026768e-07
9.8345322e-07
1.0052649e-06
1.0371658e-06
1.0815391e-06
1.1415999e-06
1.2217463e-06
1.3283263e-06
1.4702771e-06
1.6607975e-06
1.9196559e-06
2.2770633e-06
2.7797605e-06
3.5002374e-06
4.5461609e-06
6.0681653e-06
8.2827749e-06
1.129789e-05
5.4811614e-06
6.3682765e-06
5.6740558e-06
4.9603061e-06
4.3046987e-06
3.7409053e-06
3.2827416e-06
2.9155438e-06
2.6185598e-06
2.3747645e-06
2.1718394e-06
2.000859e-06
1.855169e-06
1.7297406e-06
1.6207963e-06
1.525436e-06
1.4415011e-06
1.3673802e-06
1.3016602e-06
1.2433695e-06
1.1919137e-06
1.1465968e-06
1.1069435e-06
1.0727344e-06
1.0437657e-06
1.0199405e-06
1.0013143e-06
9.8797623e-07
9.8012645e-07
9.7821935e-07
9.8274783e-07
9.9462272e-07
1.0152372e-06
1.0460531e-06
1.089307e-06
1.1478897e-06
1.2261646e-06
1.330498e-06
1.4698256e-06
1.6574305e-06
1.9134839e-06
2.2694602e-06
2.7753679e-06
3.5114573e-06
4.602056e-06
6.2293946e-06
8.6631978e-06
1.2099992e-05
5.329429e-06
6.2204144e-06
5.5492091e-06
4.8519884e-06
4.2184402e-06
3.6820241e-06
3.2513013e-06
2.9072156e-06
2.6273785e-06
2.3952832e-06
2.1998884e-06
2.033441e-06
1.8901612e-06
1.7656478e-06
1.6565882e-06
1.5604713e-06
1.4753118e-06
1.3995486e-06
1.3322395e-06
1.2723016e-06
1.2190876e-06
1.172114e-06
1.1308866e-06
1.095071e-06
1.0645172e-06
1.0391833e-06
1.0191565e-06
1.0045538e-06
9.9563412e-07
9.9270624e-07
9.9612615e-07
1.0067964e-06
1.0260698e-06
1.0553241e-06
1.0969029e-06
1.1538276e-06
1.2301975e-06
1.3319521e-06
1.4678899e-06
1.6511779e-06
1.9020314e-06
2.252539e-06
2.754935e-06
3.4958269e-06
4.6148866e-06
6.3252576e-06
8.9488922e-06
1.2779339e-05
5.3185323e-06
6.1908872e-06
5.4854006e-06
4.761215e-06
4.1270503e-06
3.6125116e-06
3.2111182e-06
2.8931944e-06
2.632857e-06
2.4140974e-06
2.2273883e-06
2.0662757e-06
1.9259264e-06
1.8026848e-06
1.6937885e-06
1.5968915e-06
1.5105379e-06
1.433372e-06
1.3642991e-06
1.3026279e-06
1.2475874e-06
1.1987162e-06
1.1556653e-06
1.1181572e-06
1.0860228e-06
1.0591991e-06
1.0377684e-06
1.0218609e-06
1.0117236e-06
1.007544e-06
1.0097034e-06
1.0193191e-06
1.0375099e-06
1.0654619e-06
1.1053756e-06
1.1601448e-06
1.2340128e-06
1.3331251e-06
1.4653732e-06
1.6433899e-06
1.8870382e-06
2.2283325e-06
2.7205404e-06
3.454939e-06
4.5848935e-06
6.3525069e-06
9.1239106e-06
1.3272491e-05
5.4399468e-06
6.2708299e-06
5.4725037e-06
4.6772049e-06
4.0239676e-06
3.5305992e-06
3.1626442e-06
2.8741867e-06
2.6352767e-06
2.431076e-06
2.2539035e-06
2.0987226e-06
1.9617992e-06
1.8400011e-06
1.7313078e-06
1.6340365e-06
1.5465351e-06
1.4678392e-06
1.3970003e-06
1.3333606e-06
1.2764453e-06
1.2258225e-06
1.181099e-06
1.1419729e-06
1.1082649e-06
1.0799183e-06
1.0570337e-06
1.0397996e-06
1.0284915e-06
1.0230825e-06
1.0239127e-06
1.0322235e-06
1.0491507e-06
1.075759e-06
1.11428e-06
1.167241e-06
1.2386569e-06
1.3340878e-06
1.4619921e-06
1.6341473e-06
1.8690618e-06
2.1979189e-06
2.6738082e-06
3.3911225e-06
4.5158198e-06
6.3173652e-06
9.1926242e-06
1.3554162e-05
5.6900177e-06
6.4529189e-06
5.4978584e-06
4.5868701e-06
3.9037766e-06
3.436866e-06
3.1081168e-06
2.8519064e-06
2.6355104e-06
2.446472e-06
2.2793929e-06
2.1303797e-06
1.9969062e-06
1.8771369e-06
1.7689097e-06
1.6710155e-06
1.5823781e-06
1.502022e-06
1.4294259e-06
1.3640633e-06
1.3054271e-06
1.2530857e-06
1.2066707e-06
1.1659072e-06
1.1306203e-06
1.1007555e-06
1.076414e-06
1.057865e-06
1.0454616e-06
1.0388389e-06
1.0383417e-06
1.0454645e-06
1.0611878e-06
1.0862399e-06
1.1233037e-06
1.1745147e-06
1.2436647e-06
1.3362773e-06
1.4596259e-06
1.6249227e-06
1.8503108e-06
2.1647143e-06
2.6198665e-06
3.3121901e-06
4.420817e-06
6.2439641e-06
9.1935144e-06
1.3672274e-05
6.0606456e-06
6.7279546e-06
5.5447501e-06
4.4770669e-06
3.7648212e-06
3.3350272e-06
3.0513816e-06
2.8287491e-06
2.6348476e-06
2.4610228e-06
2.3037219e-06
2.161446e-06
2.0317681e-06
1.9135073e-06
1.8056514e-06
1.7070549e-06
1.6171784e-06
1.5354501e-06
1.461314e-06
1.3942831e-06
1.3339491e-06
1.2799342e-06
1.2318967e-06
1.189576e-06
1.1527895e-06
1.1214783e-06
1.0957197e-06
1.0758919e-06
1.0625216e-06
1.0547314e-06
1.0529111e-06
1.0589295e-06
1.0735724e-06
1.0971462e-06
1.1328853e-06
1.1820786e-06
1.2489772e-06
1.3390954e-06
1.4584589e-06
1.6172692e-06
1.8319245e-06
2.1306263e-06
2.5619039e-06
3.223331e-06
4.309058e-06
6.1507589e-06
9.1565191e-06
1.3670946e-05
6.5436958e-06
7.091546e-06
5.5959839e-06
4.3398079e-06
3.6111943e-06
3.2313246e-06
2.996623e-06
2.806782e-06
2.6344605e-06
2.4751078e-06
2.3280998e-06
2.1916482e-06
2.0653203e-06
1.9483593e-06
1.8405508e-06
1.741516e-06
1.650746e-06
1.5677422e-06
1.4920933e-06
1.4234452e-06
1.3615027e-06
1.3059199e-06
1.2563673e-06
1.2125918e-06
1.1744005e-06
1.1417351e-06
1.1146175e-06
1.093553e-06
1.0793736e-06
1.0704735e-06
1.0673485e-06
1.072377e-06
1.0860679e-06
1.108139e-06
1.1428183e-06
1.1901351e-06
1.2548665e-06
1.3420722e-06
1.4575884e-06
1.610482e-06
1.8150045e-06
2.0971191e-06
2.5023352e-06
3.1283869e-06
4.1871674e-06
6.05257e-06
9.1024268e-06
1.356589e-05
7.1239682e-06
7.5372759e-06
5.6309482e-06
4.1741757e-06
3.4512906e-06
3.1327379e-06
2.9474702e-06
2.7878173e-06
2.634703e-06
2.4898698e-06
2.3519417e-06
2.2205713e-06
2.0968173e-06
1.9813086e-06
1.87391e-06
1.7745051e-06
1.6827995e-06
1.5985211e-06
1.5214203e-06
1.4512464e-06
1.3878028e-06
1.3307584e-06
1.2797949e-06
1.2346699e-06
1.1951772e-06
1.1612701e-06
1.1328743e-06
1.1106224e-06
1.0958172e-06
1.0858773e-06
1.0814856e-06
1.0856603e-06
1.0985501e-06
1.1190882e-06
1.1529995e-06
1.1984316e-06
1.2612158e-06
1.3459721e-06
1.4574466e-06
1.604172e-06
1.7996116e-06
2.0638371e-06
2.440882e-06
3.0272807e-06
4.0554564e-06
5.953569e-06
9.0293365e-06
1.3322515e-05
7.7787501e-06
8.0662708e-06
5.6358039e-06
3.9896587e-06
3.2956063e-06
3.044571e-06
2.905602e-06
2.7715573e-06
2.6373497e-06
2.5051402e-06
2.3744612e-06
2.2477729e-06
2.1267345e-06
2.0125276e-06
1.9052836e-06
1.8053835e-06
1.7127364e-06
1.6272671e-06
1.5488375e-06
1.4772662e-06
1.4124581e-06
1.3540849e-06
1.3018417e-06
1.255498e-06
1.2148284e-06
1.1798137e-06
1.1502431e-06
1.1268576e-06
1.1116168e-06
1.1007116e-06
1.0951061e-06
1.0985655e-06
1.1108092e-06
1.1297732e-06
1.1632335e-06
1.2067485e-06
1.2678095e-06
1.3503452e-06
1.4581003e-06
1.5987559e-06
1.7843333e-06
2.0329824e-06
2.3815259e-06
2.9265142e-06
3.924126e-06
5.8739764e-06
8.9565472e-06
1.2945184e-05
8.4676545e-06
8.6507402e-06
5.594174e-06
3.7984986e-06
3.1526521e-06
2.9699488e-06
2.8714939e-06
2.7592573e-06
2.6420803e-06
2.5200505e-06
2.396238e-06
2.2736482e-06
2.1547229e-06
2.0414917e-06
1.9342884e-06
1.8339435e-06
1.7404462e-06
1.6538921e-06
1.5742421e-06
1.5013774e-06
1.4353191e-06
1.375734e-06
1.3223313e-06
1.2748931e-06
1.233166e-06
1.1971765e-06
1.1665426e-06
1.1420762e-06
1.1265714e-06
1.1147716e-06
1.1080132e-06
1.1108764e-06
1.1226106e-06
1.1399479e-06
1.1732516e-06
1.2147771e-06
1.2743214e-06
1.3548089e-06
1.4590182e-06
1.5940141e-06
1.7699347e-06
2.0037e-06
2.3233468e-06
2.8263572e-06
3.7947518e-06
5.8183565e-06
8.8727255e-06
1.2419713e-05
9.1732593e-06
9.2915663e-06
5.5126682e-06
3.6151823e-06
3.0274785e-06
2.9091574e-06
2.8436856e-06
2.7517566e-06
2.6475824e-06
2.5348799e-06
2.4168704e-06
2.2976445e-06
2.1804036e-06
2.0679315e-06
1.9606254e-06
1.8598121e-06
1.7655124e-06
1.6779883e-06
1.5972711e-06
1.5232741e-06
1.4561311e-06
1.3954878e-06
1.3410701e-06
1.2926753e-06
1.2500178e-06
1.2131902e-06
1.1816179e-06
1.1561348e-06
1.1405208e-06
1.1279105e-06
1.1200855e-06
1.1224689e-06
1.1338338e-06
1.1495286e-06
1.1829552e-06
1.2224394e-06
1.2806827e-06
1.3592652e-06
1.4600822e-06
1.5896981e-06
1.7565439e-06
1.9742947e-06
2.2640841e-06
2.7232938e-06
3.6611157e-06
5.7726732e-06
8.7400501e-06
1.1716575e-05
9.8825165e-06
9.9681384e-06
5.4033847e-06
3.4493773e-06
2.921501e-06
2.8606665e-06
2.8188754e-06
2.7444927e-06
2.6528435e-06
2.548346e-06
2.4352582e-06
2.3190042e-06
2.203416e-06
2.0918466e-06
1.9844807e-06
1.8831264e-06
1.7878675e-06
1.6992153e-06
1.617311e-06
1.5421134e-06
1.4738761e-06
1.4122103e-06
1.3568504e-06
1.3076015e-06
1.2641325e-06
1.2266096e-06
1.1942533e-06
1.1678624e-06
1.1522761e-06
1.1389637e-06
1.1301892e-06
1.132181e-06
1.1432615e-06
1.1572868e-06
1.1909694e-06
1.2283071e-06
1.2853461e-06
1.3620297e-06
1.4595254e-06
1.5840472e-06
1.742409e-06
1.9449083e-06
2.2080623e-06
2.6294786e-06
3.5536564e-06
5.7738495e-06
8.569873e-06
1.0923848e-05
1.0505357e-05
1.0560734e-05
5.2656167e-06
3.2996723e-06
2.8285062e-06
2.8169819e-06
2.7950832e-06
2.7335611e-06
2.6522496e-06
2.5544753e-06
2.4453434e-06
2.3305991e-06
2.2149574e-06
2.1031479e-06
1.995475e-06
1.894273e-06
1.7995251e-06
1.7119031e-06
1.6315956e-06
1.5585305e-06
1.4929749e-06
1.4343717e-06
1.3823162e-06
1.3364693e-06
1.2963065e-06
1.2619675e-06
1.2323632e-06
1.2081586e-06
1.1955587e-06
1.184054e-06
1.1764783e-06
1.1801963e-06
1.1931653e-06
1.207342e-06
1.243944e-06
1.2814677e-06
1.3405338e-06
1.4191434e-06
1.5178804e-06
1.643093e-06
1.8009063e-06
1.9993501e-06
2.2525515e-06
2.7535007e-06
4.0165167e-06
6.8468775e-06
9.967972e-06
1.225914e-05
1.1092657e-05
1.1169272e-05
5.118677e-06
3.1422213e-06
2.7115054e-06
2.7350355e-06
2.7286965e-06
2.6794732e-06
2.6071065e-06
2.5154744e-06
2.4133801e-06
2.3105173e-06
2.2124306e-06
2.1267427e-06
2.0561847e-06
2.0051311e-06
1.9733145e-06
1.9598929e-06
1.962278e-06
1.9768914e-06
2.0005968e-06
2.0292584e-06
2.059497e-06
2.0887472e-06
2.1147002e-06
2.1373297e-06
2.1542114e-06
2.1665561e-06
2.192598e-06
2.2082966e-06
2.2215018e-06
2.2519142e-06
2.296504e-06
2.3353598e-06
2.4271161e-06
2.5129797e-06
2.654472e-06
2.8438479e-06
3.0894977e-06
3.4144804e-06
3.8433626e-06
4.426688e-06
5.2403768e-06
7.6403906e-06
1.4130388e-05
2.5902828e-05
3.5163019e-05
3.4695263e-05
1.1641047e-05
1.1557869e-05
4.8484518e-06
2.8495185e-06
2.426574e-06
2.4543303e-06
2.4554318e-06
2.4323023e-06
2.4103789e-06
2.409534e-06
2.462801e-06
2.609311e-06
2.8714523e-06
3.2579854e-06
3.7606074e-06
4.3682287e-06
5.0604468e-06
5.8153903e-06
6.6080224e-06
7.4117585e-06
8.2028998e-06
8.956948e-06
9.6561783e-06
1.0289862e-05
1.0852096e-05
1.1349372e-05
1.1775008e-05
1.2149938e-05
1.2577398e-05
1.2918536e-05
1.3246951e-05
1.3684342e-05
1.4198382e-05
1.4698992e-05
1.5586501e-05
1.6437188e-05
1.7778011e-05
1.9497895e-05
2.1729952e-05
2.4762486e-05
2.9083773e-05
3.4974588e-05
3.8434483e-05
3.8574063e-05
3.6414674e-05
3.6818917e-05
3.5598299e-05
3.5228109e-05
1.1990913e-05
1.0733691e-05
3.972713e-06
2.0838474e-06
1.7108386e-06
1.7219385e-06
1.7805404e-06
1.9615081e-06
2.3630865e-06
3.0533488e-06
4.0573985e-06
5.3724742e-06
6.9950214e-06
8.9059981e-06
1.1068899e-05
1.3432902e-05
1.5934815e-05
1.8509149e-05
2.1096772e-05
2.3648158e-05
2.6129749e-05
2.8517972e-05
3.0806721e-05
3.3002196e-05
3.5117422e-05
3.7175286e-05
3.9173292e-05
4.1173216e-05
4.325802e-05
4.5204819e-05
4.7210653e-05
4.9377785e-05
5.1501553e-05
5.3599883e-05
5.5814564e-05
5.7517692e-05
5.8575273e-05
5.7824838e-05
5.4008857e-05
4.8509032e-05
4.9060082e-05
4.704654e-05
4.2641409e-05
3.8539258e-05
5.5404099e-05
6.1251243e-05
6.2240817e-05
6.4327596e-05
1.1679994e-05
6.2654494e-06
1.9179241e-06
9.8988533e-07
9.5212089e-07
1.1572384e-06
1.7037922e-06
2.7978325e-06
4.5409514e-06
6.968935e-06
1.0066851e-05
1.3725498e-05
1.7765616e-05
2.1964815e-05
2.6124018e-05
3.0102485e-05
3.3822402e-05
3.72606e-05
4.0438172e-05
4.3399432e-05
4.6207443e-05
4.892493e-05
5.1612155e-05
5.4317429e-05
5.7066163e-05
5.9871516e-05
6.2709872e-05
6.5543764e-05
6.8394805e-05
7.1097588e-05
7.363942e-05
7.5965419e-05
7.7992995e-05
7.9516967e-05
8.0596082e-05
8.1117058e-05
8.0925108e-05
8.0433095e-05
7.9686193e-05
7.9052754e-05
7.8933387e-05
7.9833717e-05
8.3388269e-05
9.4410133e-05
0.00011042088
0.00012147433
0.000130217
0.0001399562
7.9093802e-06
1.6946074e-06
6.0610835e-07
4.4476492e-07
8.159127e-07
1.6320128e-06
3.5221813e-06
6.7512091e-06
1.1312178e-05
1.6847951e-05
2.280884e-05
2.86478e-05
3.4009674e-05
3.872125e-05
4.2764804e-05
4.621876e-05
4.920626e-05
5.1870508e-05
5.4356425e-05
5.6793668e-05
5.9299327e-05
6.1961782e-05
6.4840065e-05
6.7962805e-05
7.1324798e-05
7.4909703e-05
7.8669949e-05
8.2522373e-05
8.652359e-05
9.051978e-05
9.4478538e-05
9.8410168e-05
0.00010230196
0.0001059507
0.00010965175
0.00011313811
0.00011663286
0.00012026036
0.00012413217
0.00012852055
0.0001337205
0.00014021992
0.00014968436
0.00016491597
0.00018450856
0.00020240579
0.00021987998
0.00023746303
2.5292339e-06
4.6528038e-07
2.3199463e-07
3.0100828e-07
1.214046e-06
3.5139605e-06
8.0822561e-06
1.4635888e-05
2.2080804e-05
2.9248853e-05
3.5472343e-05
4.0530957e-05
4.451672e-05
4.7635805e-05
5.0148068e-05
5.2303088e-05
5.4309883e-05
5.6342509e-05
5.8535893e-05
6.0992721e-05
6.3793675e-05
6.6986505e-05
7.0588975e-05
7.4595058e-05
7.8975838e-05
8.3701795e-05
8.8723892e-05
9.3962756e-05
9.9491676e-05
0.00010519024
0.000111045
0.00011708425
0.00012330217
0.00012953026
0.00013608782
0.00014266712
0.0001495928
0.00015687206
0.00016465233
0.0001731649
0.00018269166
0.0001937095
0.00020743599
0.00022510274
0.00024624609
0.00026779603
0.00029031729
0.00031262995
6.3648082e-07
1.6461976e-07
1.2372933e-07
2.9119559e-07
2.0802296e-06
6.7602453e-06
1.4115994e-05
2.2282595e-05
2.9606527e-05
3.5346257e-05
3.9515177e-05
4.2444183e-05
4.4571506e-05
4.6262537e-05
4.7815736e-05
4.9442641e-05
5.1284398e-05
5.3441531e-05
5.5979866e-05
5.8945438e-05
6.2371235e-05
6.6269299e-05
7.0634739e-05
7.5451081e-05
8.0689446e-05
8.6326388e-05
9.2328957e-05
9.8639612e-05
0.00010533522
0.00011234869
0.00011967266
0.00012731902
0.0001352878
0.00014344874
0.00015205427
0.00016084487
0.00017009983
0.00017979128
0.0001900584
0.00020107534
0.00021305028
0.00022632981
0.00024158156
0.00025927176
0.00027969247
0.00030196584
0.00032619904
0.00035043894
1.9203224e-07
7.4732269e-08
8.528608e-08
3.1694633e-07
3.1671249e-06
9.5957092e-06
1.746038e-05
2.4434953e-05
2.9545109e-05
3.289071e-05
3.5034882e-05
3.6509578e-05
3.7740308e-05
3.8986211e-05
4.042803e-05
4.2172187e-05
4.4282607e-05
4.6798909e-05
4.9744704e-05
5.3135411e-05
5.6980826e-05
6.1281768e-05
6.6032895e-05
7.1224182e-05
7.6838608e-05
8.2866993e-05
8.9298572e-05
9.6099127e-05
0.00010334266
0.00011100941
0.00011908049
0.00012754201
0.00013640692
0.00014557311
0.00015520158
0.00016511199
0.00017548497
0.00018629028
0.00019763693
0.00020962998
0.0002223882
0.00023611241
0.00025105211
0.00026734152
0.0002858742
0.00030722072
0.00033101076
0.00035497491
7.0703675e-08
4.0396688e-08
6.4494199e-08
3.1709763e-07
3.652283e-06
9.8907204e-06
1.6128784e-05
2.0669613e-05
2.3493579e-05
2.5187304e-05
2.6342518e-05
2.7335942e-05
2.8416208e-05
2.9703699e-05
3.1284724e-05
3.3205908e-05
3.5496687e-05
3.8172332e-05
4.1244216e-05
4.4717973e-05
4.8598174e-05
5.2888584e-05
5.7593767e-05
6.2714864e-05
6.8245592e-05
7.4190079e-05
8.0556832e-05
8.7327824e-05
9.4569339e-05
0.00010228827
0.00011044761
0.00011901846
0.00012802656
0.00013738071
0.00014716585
0.00015727266
0.0001677826
0.00017867781
0.00019002789
0.00020187347
0.00021425746
0.0002272674
0.00024088813
0.00025511727
0.00027126672
0.00029071474
0.0003124969
0.00033444365
3.0053714e-08
2.3105097e-08
4.5418712e-08
2.5264733e-07
3.0075935e-06
7.5924977e-06
1.146854e-05
1.3912059e-05
1.535987e-05
1.6324502e-05
1.7157862e-05
1.8046708e-05
1.9108977e-05
2.0397348e-05
2.1957741e-05
2.3818583e-05
2.6000659e-05
2.8514682e-05
3.1372662e-05
3.4582436e-05
3.8152919e-05
4.2095111e-05
4.6421631e-05
5.1139119e-05
5.6248564e-05
6.1761863e-05
6.7698069e-05
7.4047768e-05
8.0865009e-05
8.8166887e-05
9.5903946e-05
0.00010404625
0.00011262024
0.00012153538
0.00013083049
0.00014044164
0.00015037434
0.00016062757
0.00017122469
0.00018215788
0.00019341918
0.00020501417
0.00021677979
0.00022864443
0.00024217522
0.00025901827
0.00027754331
0.0002961575
1.3687779e-08
1.2367125e-08
2.6519245e-08
1.5150718e-07
1.7962758e-06
4.3677798e-06
6.3077577e-06
7.4939321e-06
8.2728189e-06
8.8997943e-06
9.537178e-06
1.0270481e-05
1.1156009e-05
1.2225226e-05
1.3509805e-05
1.5035022e-05
1.682156e-05
1.8884537e-05
2.1240594e-05
2.3904639e-05
2.6892261e-05
3.0219554e-05
3.3904259e-05
3.7955984e-05
4.2378161e-05
4.7184968e-05
5.2394777e-05
5.8007869e-05
6.4071484e-05
7.0592669e-05
7.7517833e-05
8.4821664e-05
9.2523827e-05
0.00010053263
0.00010886424
0.0001174753
0.00012632307
0.00013542065
0.00014474448
0.00015425549
0.00016391556
0.00017368033
0.00018332314
0.00019273703
0.00020353185
0.00021717077
0.00023157284
0.00024599974
6.2319432e-09
5.6276902e-09
1.208752e-08
6.7564007e-08
7.6075577e-07
1.7969213e-06
2.5844464e-06
3.130452e-06
3.5594595e-06
3.9219756e-06
4.3170506e-06
4.7858927e-06
5.3576012e-06
6.0548821e-06
6.9019359e-06
7.9193092e-06
9.1261241e-06
1.0546567e-05
1.2203239e-05
1.4117445e-05
1.6310823e-05
1.8804504e-05
2.1620555e-05
2.4773485e-05
2.8271437e-05
3.2130193e-05
3.6366166e-05
4.0983511e-05
4.6017213e-05
5.1455892e-05
5.7257158e-05
6.340364e-05
6.9894944e-05
7.6642474e-05
8.3651549e-05
9.0885633e-05
9.8280252e-05
0.00010584776
0.00011354028
0.00012129389
0.00012905519
0.00013675964
0.000144176
0.0001511919
0.00015921157
0.00016924645
0.00017914031
0.00018911024
2.7071313e-09
1.9011787e-09
3.3813651e-09
1.585918e-08
1.6515128e-07
4.0692813e-07
6.2464753e-07
8.0923576e-07
9.8126501e-07
1.1570535e-06
1.3563118e-06
1.5944194e-06
1.885397e-06
2.2431062e-06
2.6830308e-06
3.206373e-06
3.8241052e-06
4.5784068e-06
5.4929571e-06
6.5917235e-06
7.8996977e-06
9.4418045e-06
1.1238591e-05
1.3307797e-05
1.5672551e-05
1.8354996e-05
2.137704e-05
2.4749592e-05
2.8496033e-05
3.2603742e-05
3.7048967e-05