/*--------------------------------*- C++ -*----------------------------------*\
| =========                 |                                                 |
| \\      /  F ield         | OpenFOAM: The Open Source CFD Toolbox           |
|  \\    /   O peration     | Version:  2212                                  |
|   \\  /    A nd           | Website:  www.openfoam.com                      |
|    \\/     M anipulation  |                                                 |
\*---------------------------------------------------------------------------*/
FoamFile
{
    version     2.0;
    format      ascii;
    arch        "LSB;label=32;scalar=64";
    class       volScalarField;
    location    "0.064";
    object      omega;
}
// * * * * * * * * * * * * * * * * * * * * * * * * * * * * * * * * * * * * * //

dimensions      [0 0 -1 0 0 0 0];

internalField   nonuniform List<scalar> 
18080
(
0.1721161
0.47315077
0.73912167
1.0126762
1.3118178
1.6440858
2.014657
2.4231382
2.8743789
3.3739121
3.9335755
4.5549248
5.2446837
6.0106899
6.8617376
7.8075268
8.8514889
9.9969062
11.23974
12.537313
13.966506
15.53012
17.205274
18.971623
20.804112
22.670108
24.528176
26.329234
28.014497
29.518112
30.769861
31.709169
32.572463
33.359153
34.066632
34.694378
35.244631
35.719911
36.124408
36.463978
36.745623
36.97696
37.165674
37.319041
37.443048
37.542491
37.622718
37.688136
0.19130665
0.46683086
0.720186
0.98346756
1.2716529
1.5918676
1.947188
2.3391812
2.7723356
3.2555936
3.7945186
4.3942672
5.0626315
5.808567
6.6423085
7.5769106
8.6199582
9.7806994
11.068599
12.494284
14.055159
15.745833
17.55867
19.478765
21.481886
23.533222
25.586567
27.584875
29.461391
31.134921
32.525549
33.553941
34.309787
35.012297
35.63815
36.181131
36.64283
37.027841
37.342155
37.593034
37.788708
37.937809
38.048839
38.129737
38.187996
38.230422
38.261194
38.283679
0.18681843
0.4585625
0.71276967
0.97439731
1.2628254
1.5829118
1.9387759
2.3320022
2.7667943
3.2513569
3.792007
4.3932157
5.0623606
5.8078373
6.6390962
7.5684402
8.6020469
9.747838
11.013293
12.404642
13.918284
15.55061
17.292974
19.1287
21.032563
22.970855
24.901417
26.772215
28.522353
30.079171
31.370912
32.326076
33.146385
33.897765
34.572377
35.166611
35.68221
36.122237
36.491386
36.795944
37.043366
37.241721
37.399112
37.523177
37.62054
37.696781
37.75685
37.804887
0.19458639
0.46094704
0.7140887
0.97459079
1.2606891
1.580108
1.9342638
2.3249639
2.7574388
3.2398355
3.777671
4.3760538
5.0424999
5.7856481
6.6150826
7.5438442
8.578586
9.7277076
10.998986
12.396668
13.9239
15.578804
17.352756
19.229692
21.184758
23.18266
25.176663
27.11097
28.920419
30.529456
31.862688
32.845226
33.627408
34.348304
34.992473
35.555397
36.039047
36.447462
36.786033
37.061477
37.281517
37.454354
37.588143
37.690549
37.768544
37.82824
37.874099
37.909926
0.19976983
0.46069254
0.71246589
0.97216044
1.2567331
1.5756691
1.929232
2.3193109
2.7516226
3.2339774
3.7717754
4.3701777
5.0365527
5.7793788
6.6078972
7.5351726
8.5673448
9.7125462
10.97829
12.369305
13.887063
15.528324
17.284129
19.138416
21.066498
23.033591
24.994012
26.893875
28.670422
30.250244
31.560042
32.526719
33.325452
34.059674
34.717475
35.29475
35.79339
36.216959
36.570489
36.86045
37.094389
37.280397
37.426562
37.540503
37.628962
37.697691
37.751378
37.794081
0.21065745
0.46323847
0.71284666
0.97141729
1.2549795
1.5732669
1.925973
2.3150781
2.7464301
3.22768
3.7641997
4.3612122
5.0261077
5.7673972
6.5942695
7.5200257
8.5508521
9.6950016
10.960087
12.350771
13.868772
15.511265
17.269518
19.127475
21.060359
23.033511
25.001841
26.911393
28.698813
30.290165
31.61159
32.589223
33.380338
34.109518
34.762689
35.335428
35.829648
36.249066
36.598796
36.885334
37.11622
37.299528
37.443324
37.555213
37.64197
37.709384
37.762041
37.80399
0.22753705
0.46788707
0.71411859
0.97088984
1.2534098
1.5708904
1.9226761
2.3109463
2.7415552
3.2221801
3.7579682
4.3542559
5.0184035
5.7588764
6.5848057
7.5093702
8.5387412
9.6811013
10.943996
12.332072
13.847017
15.48593
17.240035
19.093328
21.021194
22.989186
24.952386
26.857067
28.640211
30.228324
31.548022
32.525643
33.3195
34.05157
34.707959
35.284208
35.782224
36.205638
36.559485
36.850185
37.085216
37.272601
37.420376
37.536126
37.626535
37.697228
37.752838
37.797509
0.25142325
0.47560883
0.71737133
0.97183055
1.2531182
1.5695461
1.9202867
2.3076404
2.7373257
3.2170783
3.7518094
4.3469523
5.0098595
5.7489849
6.5734517
7.4964456
8.5240822
9.6646307
10.925677
12.311915
13.825095
15.462415
17.21523
19.067694
20.995356
22.963932
24.92868
26.836067
28.623139
30.216503
31.542835
32.528196
33.321458
34.054452
34.712239
35.290126
35.790002
36.215491
36.571596
36.864693
37.102207
37.292124
37.442458
37.560784
37.653737
37.726822
37.784675
37.831512
0.28437162
0.48773829
0.72350039
0.97479842
1.2542802
1.5691937
1.9186096
2.3048448
2.7334117
3.2121334
3.7456717
4.3395573
5.0011406
5.7388654
6.5618426
7.4833
8.5091721
9.6478539
10.906954
12.291205
13.802418
15.437879
17.189063
19.040274
20.967238
22.935882
24.901692
26.811374
28.602101
30.200636
31.533804
32.527449
33.322244
34.05821
34.719471
35.301064
35.804858
36.234443
36.59477
36.892155
37.133965
37.328143
37.482685
37.605164
37.702129
37.778893
37.840136
37.890186
0.32820236
0.50597288
0.73366969
0.980537
1.2574713
1.5702852
1.9179764
2.302812
2.729969
3.2073981
3.7394275
4.33171
4.9916015
5.7275447
6.5487778
7.4682479
8.4920188
9.628575
10.885593
12.26789
13.777391
15.411528
17.161958
19.0132
20.941214
22.912176
24.881813
26.797068
28.595192
30.203033
31.547486
32.554012
33.350516
34.090278
34.755998
35.34229
35.850963
36.285562
36.650984
36.95348
37.200358
37.399523
37.55896
37.686255
37.787867
37.868883
37.934053
37.987838
0.38392002
0.53295058
0.74920008
0.98990034
1.2633681
1.573298
1.9186842
2.3017015
2.727021
3.2027726
3.7328554
4.3230885
4.9808483
5.7145911
6.5338072
7.4508864
8.4722756
9.6065262
10.861416
12.241878
13.749996
15.383388
17.133942
18.986434
20.917103
22.892404
24.868321
26.79204
28.600874
30.221716
31.581472
32.605102
33.40468
34.149913
34.821777
35.414349
35.92938
36.370374
36.742177
37.050983
37.304041
37.50923
37.674538
37.807579
37.914709
38.000731
38.070508
38.128675
0.45184851
0.56916543
0.77144159
1.0043829
1.2728931
1.57888
1.9212387
2.3018644
2.7247956
3.1982708
3.7258113
4.313387
4.9684067
5.6993579
6.5160533
7.4302302
8.448824
9.5804909
10.833159
12.211934
13.719112
15.352567
17.104485
18.959968
20.895589
22.878128
24.863847
26.800165
28.624413
30.263443
31.644075
32.690584
33.494332
34.246658
34.926395
35.526899
36.049825
36.498624
36.878094
37.194371
37.454657
37.666812
37.83885
37.978443
38.091833
38.183482
38.258421
38.321518
0.53241136
0.61540223
0.80163387
1.0249467
1.2869641
1.5877261
1.9261731
2.3036676
2.7234805
3.1938843
3.718091
4.302207
4.9536985
5.6811077
6.4946635
7.405324
8.4206442
9.5494428
10.799842
12.177192
13.68407
15.318677
17.073571
18.934252
20.877681
22.871008
24.870791
26.824682
28.669983
30.333412
31.741566
32.817791
33.627611
34.388992
35.078445
35.688543
36.220871
36.678848
37.067236
37.392123
37.660661
37.880703
38.060308
38.207234
38.327598
38.425443
38.506053
38.5746
0.62260236
0.67112653
0.84033047
1.0522434
1.3062527
1.6004208
1.93412
2.3074664
2.7232362
3.1896098
3.7094818
4.2891235
4.9360931
5.6590237
6.4687232
7.375124
8.386597
9.5121937
10.76028
12.136537
13.643897
15.280975
17.040803
18.909369
20.86409
22.872481
24.891361
26.868568
28.741332
30.436202
31.879505
32.993495
33.810628
34.58311
35.284446
35.90629
36.450124
36.919289
37.318457
37.653618
37.931844
38.160974
38.349141
38.504251
38.632309
38.736886
38.82365
38.898186
0.7186832
0.73416102
0.88621286
1.0862733
1.3307188
1.6171404
1.9453522
2.3134892
2.7242193
3.1854032
3.6997542
4.2737268
4.9150246
5.6324062
6.4373349
7.3386033
8.3455633
9.467566
10.713288
12.088827
13.597564
15.238606
17.005507
18.884847
20.854742
22.883254
24.927469
26.935267
28.843451
30.577951
32.064505
33.224262
34.05122
34.837444
35.553266
36.189463
36.74745
37.230369
37.642644
37.99004
38.279484
38.518819
38.716339
38.880235
39.016495
39.12821
39.221612
39.302841
0.81523575
0.80661055
0.93583201
1.1246961
1.3593295
1.6378457
1.959864
2.3218703
2.7267978
3.1813402
3.688804
4.2557365
4.8900367
5.6009818
6.399889
7.2950581
8.2967647
9.4147316
10.658013
12.033196
13.544198
15.190903
16.967556
18.860909
20.849532
22.902118
24.97641
27.020887
28.973256
30.758756
32.301098
33.518875
34.362307
35.16411
35.896383
36.549551
37.124456
37.623608
38.050927
38.411856
38.713228
38.96305
39.170006
39.342838
39.487706
39.60724
39.708367
39.79787
0.90544312
0.89722237
0.98614012
1.1651341
1.3910009
1.6625735
1.9779203
2.3330352
2.7311392
3.1777206
3.6768167
4.2352516
4.8611408
5.565077
6.3561156
7.2441605
8.2398147
9.3532308
10.59391
11.969179
13.483213
15.135945
16.922719
18.832881
20.845382
22.928833
25.040723
27.128823
29.127432
30.964449
32.568016
33.853775
34.747876
35.570804
36.320589
36.990527
37.58145
38.095836
38.537446
38.911546
39.224943
39.485885
39.703541
39.887301
40.04344
40.173851
40.286234
40.388062
0.98191029
0.97875405
1.032517
1.2048745
1.4249625
1.6907919
2.0000642
2.3481172
2.7378271
3.175042
3.6643637
4.2128559
4.8295385
5.5244235
6.3064365
7.1863621
8.1751673
9.2835662
10.521367
11.895709
13.413159
15.075265
16.876955
18.806997
20.846359
22.964903
25.120253
27.260939
29.322512
31.228641
32.902383
34.255505
35.210614
36.052285
36.823077
37.514206
38.124183
38.655232
39.11159
39.499063
39.824961
40.098077
40.328214
40.525477
40.696181
40.841243
40.969191
41.088211
1.0378244
1.0299099
1.0726942
1.2414285
1.4603204
1.723023
2.026566
2.3674186
2.7476084
3.1735435
3.6518411
4.189179
4.795681
5.4798536
6.2518312
7.1227745
8.1039992
9.2062244
10.440777
11.816379
13.337727
15.008181
16.825294
18.777607
20.846305
23.002247
25.203779
27.399214
29.52741
31.51137
33.271056
34.716933
35.755592
36.614237
37.407415
38.120643
38.750202
39.298277
39.769745
40.171091
40.51025
40.796674
41.040926
41.253955
41.442222
41.605627
41.753509
41.894739
1.068051
1.0609679
1.0995259
1.2717162
1.4947404
1.7581795
2.0573062
2.3896588
2.7590941
3.1731899
3.6395727
4.1656538
4.7602074
5.4328389
6.1940623
7.0551222
8.0279615
9.1247674
10.355434
11.730856
13.257219
14.936755
16.768209
18.743513
20.84479
23.043044
25.29633
27.55177
29.745247
31.802266
33.646676
35.188739
36.329166
37.205591
38.022911
38.759824
39.410654
39.977652
40.466439
40.884305
41.239932
41.543554
41.8066
42.040971
42.253203
42.441782
42.616887
42.788094
1.0704818
1.0677652
1.1110013
1.2964913
1.5302592
1.7974104
2.0929991
2.4155878
2.772995
3.1751898
3.628801
4.1424028
4.7244103
5.3849877
6.1347361
6.9860491
7.9503666
9.0403365
10.268003
11.642642
13.173054
14.863349
16.712304
18.71219
20.846361
23.086989
25.392709
27.71011
29.974705
32.114151
34.049789
35.681492
36.915417
37.814506
38.660901
39.424239
40.097893
40.68562
41.19392
41.631124
42.006876
42.332372
42.620058
42.882906
43.127369
43.349904
43.561503
43.772464
1.0463866
1.0489748
1.1119536
1.3194018
1.5714305
1.8446667
2.1345443
2.4456552
2.7905647
3.1790461
3.6197439
4.1202706
4.6894115
5.3381477
6.0769735
6.9175811
7.8735768
8.9571975
10.18126
11.556865
13.091859
14.790991
16.654589
18.676524
20.84178
23.123711
25.481431
27.860016
30.193206
32.413334
34.441913
36.172158
37.505138
38.423098
39.296527
40.089236
40.791064
41.402671
41.934544
42.396222
42.798528
43.153749
43.47537
43.77734
44.065625
44.333945
44.594217
44.857538
0.99983435
1.0070243
1.1037466
1.3438135
1.6208798
1.9000633
2.1828762
2.4827132
2.8133358
3.186862
3.6121645
4.0999724
4.6571253
5.2934375
6.0213405
6.8527314
7.8005937
8.879001
10.099965
11.474768
13.01255
14.719442
16.597019
18.640268
20.835573
23.157509
25.566119
28.004532
30.403162
32.702518
34.823435
36.648158
38.078437
39.05974
39.960288
40.7752
41.502231
42.143829
42.703856
43.193797
43.627441
44.01802
44.380063
44.728617
45.06922
45.392466
45.711124
46.037022
0.93788926
0.95121836
1.0905225
1.3745885
1.6816038
1.963523
2.2372099
2.5224553
2.8382329
3.1970014
3.6081619
4.0815412
4.6264394
5.2523256
5.970177
6.7933607
7.7345223
8.8069579
10.023827
11.397526
12.937814
14.651676
16.541722
18.604063
20.826555
23.185149
25.641537
28.136557
30.594583
32.969112
35.179993
37.094684
38.616933
39.692121
40.613758
41.453608
42.2075
42.875017
43.465357
43.988445
44.456117
44.886855
45.296972
45.702969
46.109479
46.502299
46.894796
47.2993
0.86775054
0.88461697
1.0758217
1.4156097
1.7543356
2.0340468
2.2909929
2.5612963
2.8650076
3.2104407
3.6067446
4.0676516
4.6002712
5.2160599
5.9259624
6.7411857
7.6751023
8.74184
9.9551436
11.327965
12.870398
14.590265
16.491228
18.570537
20.81746
23.209286
25.710134
28.258504
30.769106
33.21422
35.511894
37.510517
39.118544
40.293298
41.231705
42.095257
42.875973
43.571525
44.192118
44.752715
45.26733
45.750527
46.223945
46.705512
47.19825
47.681117
48.168038
48.671693
0.79617127
0.81725292
1.0648423
1.4696198
1.8375953
2.1050217
2.3406789
2.5945802
2.8871108
3.2228271
3.6090496
4.0554171
4.5797017
5.1850483
5.8867409
6.694476
7.6220618
8.6838641
9.8939594
11.265832
12.809868
14.534758
16.445132
18.539246
20.80773
23.228929
25.770247
28.368268
30.923648
33.433887
35.813947
37.889051
39.57513
40.852845
41.807
42.695562
43.504316
44.230389
44.886166
45.489366
46.058704
46.609353
47.163503
47.742592
48.347768
48.945281
49.549883
50.174812
0.72825692
0.75535279
1.0582752
1.535268
1.9263334
2.1710153
2.3793079
2.6176436
2.8944783
3.2195605
3.5997623
4.0414607
4.5574521
5.1578658
5.8528031
6.6544167
7.5767879
8.6344039
9.8417307
11.212774
12.758167
14.487419
16.406003
18.513049
20.80053
23.247458
25.825284
28.469557
31.062143
33.63215
36.089764
38.233721
39.989693
41.371368
42.341583
43.256011
44.094815
44.85621
45.55583
46.214844
46.8549
47.498038
48.162714
48.886705
49.673265
50.439755
51.205747
51.99437
0.66819173
0.69242089
1.0627
1.6111628
2.0186302
2.2344695
2.4156579
2.6400162
2.909102
3.2252661
3.5959839
4.0292904
4.5407466
5.1348001
5.8240785
6.6202943
7.53802
8.5918847
9.7967395
11.167097
12.713663
14.446722
16.37246
18.490748
20.794904
23.264164
25.874593
28.561952
31.185008
33.809828
36.340141
38.546145
40.364585
41.850171
42.837575
43.78379
44.666875
45.490583
46.276489
47.050294
47.836801
48.660231
49.556149
50.698325
52.075071
53.248292
54.322098
55.422434
0.61597043
0.64189898
1.0763375
1.6945757
2.1105952
2.3169684
2.4664688
2.6819232
2.9397105
3.2464188
3.6085791
4.0342835
4.5324795
5.1174509
5.8000462
6.591887
7.5058739
8.556643
9.7593739
11.129118
12.67656
14.412787
16.344613
18.472525
20.791185
23.279614
25.91874
28.645931
31.293405
33.967873
36.56527
38.826583
40.699865
42.287772
43.48953
44.831272
46.295912
47.844576
49.451076
51.107181
52.820827
54.622668
56.549426
59.726167
63.865208
66.458364
68.514382
70.452501
0.57102439
0.61138693
1.1001789
1.7817873
2.2082589
2.4277249
2.5309786
2.7184767
2.9621557
3.2573785
3.6124074
4.0352871
4.5337303
5.1138251
5.9031465
7.0665226
8.5983235
10.50591
12.805634
15.511042
18.63436
22.174647
26.109217
30.391279
34.94842
39.69897
44.543412
49.366396
54.175334
58.819156
63.226877
67.415881
71.356231
74.917065
78.378982
81.526816
84.659603
87.738468
90.82874
94.034145
97.46393
101.31307
105.91463
116.72203
131.72372
138.40663
142.76179
146.39577
0.53651892
0.58688879
1.1473536
2.3879319
3.445039
4.4325519
5.5062807
6.8332154
8.4379556
10.374907
12.829168
16.034614
20.261709
25.803981
33.010408
42.097348
53.247881
66.543093
81.911113
99.135744
117.99161
138.18465
159.31548
180.88243
202.26729
222.91363
242.1946
259.47391
275.44373
289.09843
300.33044
309.90646
318.01468
323.89426
329.82113
333.9802
338.47368
342.95376
347.84822
353.77052
361.31179
371.54629
386.33941
419.57815
464.3322
484.28252
496.68131
504.95435
0.50746453
0.78297302
3.5963753
11.39054
17.744964
23.298843
29.473503
36.807291
46.174632
58.617664
76.09648
100.42612
132.82055
173.72251
223.22327
280.46995
344.23994
413.02076
484.86592
557.67937
629.91095
700.29907
767.6917
830.97825
888.90948
940.6626
985.17849
1021.3699
1052.5935
1076.0672
1092.0205
1103.3732
1110.9185
1112.4444
1115.1296
1113.2966
1113.5015
1114.5374
1117.6972
1124.7881
1137.6382
1159.4835
1195.338
1279.6936
1393.5735
1442.7628
1468.069
1480.3651
0.48306953
3.2753554
21.238632
59.612138
87.710743
110.76845
139.62625
178.85198
235.63439
316.49465
427.36
568.15154
734.66261
921.06275
1120.6053
1325.6561
1529.2797
1726.73
1913.9993
2088.3068
2249.1301
2396.6428
2530.9384
2651.7839
2758.133
2849.5639
2924.611
2981.4832
3028.8196
3060.1388
3075.9097
3083.1226
3083.4777
3071.6022
3064.1007
3047.1544
3035.7062
3025.7393
3018.82
3018.765
3033.808
3069.8637
3138.5503
3354.5728
3698.8006
3872.5018
3963.8975
4021.1539
1.1509316
21.336622
113.45629
273.22712
380.66885
472.51487
618.17743
843.23508
1154.4699
1537.2556
1960.6347
2394.4319
2807.9782
3196.1655
3551.0146
3874.7925
4168.1756
4437.9045
4687.6138
4921.6522
5145.0009
5360.5525
5568.8668
5769.0667
5958.7763
6136.6184
6299.4036
6442.6716
6579.9195
6699.3829
6798.1691
6886.2597
6965.5928
7022.7388
7087.6869
7132.5539
7185.3842
7239.9089
7301.0119
7380.131
7502.3553
7695.5067
8055.8175
9021.7298
10522.835
11564.819
12329.02
12978.093
9.0323639
120.10063
503.91018
1064.3223
1447.0981
1827.2905
2427.6408
3210.9594
4041.0366
4813.9095
5460.3209
5989.1801
6407.494
6767.5343
7088.4183
7397.5215
7706.8667
8030.7641
8373.8739
8740.5335
9133.9743
9554.4133
10000.414
10470.881
10964.188
11480.204
12014.448
12557.058
13128.307
13705.27
14271.539
14839.354
15410.204
15949.808
16520.937
17067.074
17656.535
18295.383
19019.399
19880.243
20931.319
22302.575
24397.602
28021.734
32739.457
36652.904
39957.068
42634.919
58.625048
545.61602
1830.842
3422.0042
4534.38
5638.6787
6957.5682
8194.814
9123.1003
9751.8484
10147.926
10435.731
10675.349
10943.595
11261.239
11655.282
12136.74
12716.262
13397.309
14182.361
15072.343
16067.469
17170.135
18384.997
19713.562
21154.346
22693.357
24305.548
26017.725
27785.01
29567.204
31385.835
33244.56
35082.618
37020.438
38960.239
41037.992
43272.926
45731.63
48519.375
51775.865
55743.651
61043.273
68347.853
76932.299
84248.36
90303.324
94548.683
313.36984
2031.075
5437.7111
9004.0795
11333.865
13105.873
14337.721
14994.862
15231.196
15297.281
15331.772
15452.589
15693.703
16104.125
16686.433
17458.507
18432.007
19616.033
21019.107
22644.668
24493.903
26570.978
28883.717
31438.482
34231.658
37252.083
40471.549
43852.078
47429.954
51143.985
54924.058
58795.884
62758.445
66718.089
70824.498
74944.753
79244.7
83754.458
88547.569
93750.95
99533.623
106178.37
114316.59
124491.56
135712.1
144876.71
151773.95
155650.14
1378.1946
6225.843
13318.553
19475.899
22548.773
23390.318
23016.907
22351.352
21795.433
21515.203
21522.595
21839.855
22447.908
23365.178
24581.225
26110.062
27965.505
30156.95
32698.298
35595.717
38856.63
42495.339
46526.574
50958.048
55784.703
60993.107
66549.468
72408.595
78608.905
85067.161
91658.003
98387.366
105231.88
112046.72
118970.42
125838.37
132797.73
139882.85
147143.19
154693.88
162694.08
171415.25
181451.55
193342.8
205838.03
215172.17
220939.15
222444.16
4844.1858
15878.663
27415.567
35162.243
36777.073
34512.895
32019.979
30416.666
29652.6
29573.436
30032.802
30983.596
32369.655
34197.829
36450.719
39142.505
42286.878
45900.393
50008.398
54634.51
59808.601
65565.647
71931.067
78915.957
86517.671
94720.911
103481.72
112737.88
122509.2
132667.91
142999.63
153469.44
164013.16
174408.04
184754.49
194847.51
204780.86
214588.56
224270.39
233910.64
243646.01
253728.94
264739.91
277291.13
289796.65
297613.6
300241.15
297263.16
13885.48
34150.608
48418.822
54342.522
51608.939
45970.287
42458.125
40953.116
40739.142
41441.513
42842.438
44882.31
47487.876
50672.778
54419.501
58748.845
63681.934
69261.475
75539.557
82574.324
90427.637
99156.645
108791.44
119340.13
130801.21
143149.94
156319.76
170216.14
184810.38
199899.26
215145.77
230456.34
245701.14
260546.17
275035.19
288900.52
302156.02
314830.35
326845.45
338245.15
349144.69
359785.02
370764.97
382810.02
393855.46
398121.25
395307.97
385475.12
33622.61
63344.02
75147.044
74805.238
67010.425
60140.799
57317.754
56949.999
57994.346
60043.561
62917.562
66579.858
70970.137
76120.512
82029.934
88732.083
96269.433
104731.57
114208.65
124796.83
136585.6
149647.23
164002.55
179648.45
196586.92
214772.55
234099.71
254421.49
275610.91
297352.12
319151.99
340831.12
362155.52
382646.31
402265.65
420646.6
437699.9
453436.21
467664.59
480387.18
491704.68
501857.81
511492.03
521469.5
529027.99
527023.84
515998.09
496464.83
71358.197
104858.75
106952.3
97954.562
87451.126
82061.591
81371.797
82968.942
85927.927
89936.583
94971.101
101027.84
108106.56
116259.22
125523.54
135940.46
147583.46
160605.38
175132.92
191287.91
209173.07
228864.75
250348.27
273598.61
298632.93
325363.33
353621.88
383171.26
413687.5
444713.33
475562.17
505913.75
535370.35
563287.85
589491.39
613466.11
634999.55
654050.79
670275.78
683646.83
694257.84
702355.53
708649.29
714135.18
715073.24
702938.07
680190.44
647198.76
138868.06
164149.56
151525.26
134684.2
123780.86
121371.82
123500.91
127567.26
133022.14
139687.23
147810.45
157436.4
168670.32
181596.31
196319.95
212871.46
231378.4
252082.71
275128.05
300638.68
328698.2
359351.95
392474.95
427985.48
465926.47
506103.62
548227.32
591905.92
636439.98
681228.81
725316.7
768122.87
809023.2
847231.83
882302.82
913523.06
940536.99
963181.5
980908.16
993703.02
1001655.2
1005004.6
1004521.4
1001266.8
990251.13
962142.11
922886.66
870911.21
262852.73
265459.98
237732.81
214985.39
204015.98
203555.87
207398.66
213381.82
221365.74
231408.68
243762.72
258565.38
276048.46
296387.17
319820.24
346330.48
376196.47
409940.22
447753.16
489770.8
536016.65
586422.62
640548.83
698142.02
759224.28
823260.63
889600.12
957517.99
1025564.8
1092949.8
1158263
1220446.8
1278650.6
1332083
1379734.4
1420725.8
1454536.7
1480744.1
1498593.9
1508160
1509510
1502846.6
1488975.5
1468846.6
1435961.2
1381959.3
1319429.3
1239783.9
532367.87
503909.12
467230.53
440246.93
424829.99
420086.45
420958.42
425865.22
434608.12
447193.82
463807.7
484654.87
510093.04
540464.67
576281.3
618015.86
666255.14
721558.59
784385.1
855101.06
933839.05
1020522.3
1113982.6
1213727.6
1320083.8
1431641.1
1546706.5
1663468.4
1778521.3
1890466.7
1996723
2095198.4
2184803.2
2265006.8
2333503.6
2389592.3
2432529.3
2461372.5
2475541.5
2475280.7
2460686.2
2431981.6
2389981.5
2335173.7
2259449.4
2160004.2
2063162
1941107.5
1339372.7
1279580.2
1223301.8
1173197.1
1135841.8
1114153.3
1104354
1104615.9
1114013.8
1131949.6
1158096.5
1192320.1
1234773.9
1285611.8
1345407.9
1414709.9
1494367.8
1585345.3
1688707.4
1805597.9
1936963
2083605.3
2245900.5
2423649.6
2615877.1
2820338.6
3034095.1
3253434.9
3470690.1
3683013.1
3883045
4065894.9
4230309.5
4375326.7
4494256.8
4586953.4
4651423.5
4685558.4
4689869.6
4665081.6
4611765.1
4530663.7
4422722.8
4286863.2
4115564.1
3925804
3769830.7
3580947.4
4852280.2
4681277.3
4504503.9
4329107.2
4187876
4094823.6
4043389.3
4028380
4045884.4
4092940.1
4167420.2
4267810.2
4393361.1
4543056.9
4716959.5
4914500.3
5135603
5379781.4
5646313.6
5934223.1
6241724.1
6566993.8
6907750.1
7261323.3
7625255.3
7996341
8372428
8750735.7
9121092.6
9486923.1
9842615.4
10175849
10477904
10746559
10962832
11126951
11229724
11264575
11232274
11132960
10967570
10737773
10444327
10081911
9655387.6
9243339.2
8946472.9
8671531.9
32096711
30987934
29813051
28630840
27668059
27018443
26642739
26507467
26586063
26858110
27308661
27926610
28705786
29637989
30721675
31950632
33321199
34825952
36454539
38193348
40021255
41914258
43842401
45769709
47657222
49458696
51133337
52635754
53894086
54929510
55702879
56178410
56371334
56301728
55955552
55383757
54594716
53618985
52483604
51215364
49836403
48369370
46832314
45256024
43654301
41989796
40542989
39208976
467189.86
466346.82
465610.08
464900.68
464209.43
463532.63
462866.86
462209.8
461559.06
460912.33
460250.67
459529.54
458730.3
463040.91
545878.34
595738.39
585393.34
575637.45
566684.82
558692.74
551729.54
545790.87
540821.11
536727.98
533401.07
530731.73
528631.45
527023.95
525932.15
526005.45
87002.941
81766.183
80416.197
79816.291
79382.889
79006.653
78662.511
78344.014
78042.798
77764.301
77509.49
77235.689
77326.414
78597.599
90942.037
98223.16
95851.248
93918.348
92175.067
90643.145
89319.247
88274.894
87414.812
86863.241
86493.058
86423.159
86579.856
86896.436
86284.15
84681.859
32002.855
29278.121
27733.29
26997.562
26554.647
26225.029
25957.793
25738.598
25557.337
25440.396
25398.864
25378.16
26101.713
27581.308
29676.271
30481.904
29231.315
28570.327
28031.316
27609.032
27273.563
27176.185
27109.461
27362.842
27625.577
28096.215
28350.624
28359.16
26636.276
23583.674
16024.573
15504.274
14409.853
13668.156
13197.994
12864.681
12609.525
12418.091
12279.026
12235.603
12273.452
12367.203
13064.678
14533.964
14710.726
13177.042
12216.866
11982.296
11892.198
11902.65
11950.462
12177.474
12360.233
12707.709
12913.419
13094.816
12840.237
12327.054
10728.885
8885.7997
9230.0618
9927.3534
9553.5169
9056.0398
8662.1173
8360.118
8116.6296
7929.6926
7788.1438
7725.723
7717.1142
7739.5754
7975.0434
9200.1986
9616.6805
7476.9457
6440.0135
6268.8069
6322.0607
6466.081
6610.1821
6826.9525
6973.7764
7129.5805
7140.9509
7038.2392
6641.1099
6090.1227
5110.6373
4279.4137
5668.0942
6812.0745
7023.7941
6868.6724
6646.2439
6438.4959
6250.5926
6095.8892
5967.1715
5866.6798
5768.2241
5632.5144
5487.2041
6305.7712
7217.1523
5620.766
4304.325
3941.6879
3928.2738
4018.0205
4107.7554
4208.4932
4252.5775
4258.3116
4176.3439
4007.0661
3706.817
3343.8537
2850.026
2545.2867
3566.5996
4716.4418
5259.0779
5408.0473
5390.6261
5320.1519
5229.3269
5144.2662
5057.1149
4935.9898
4754.4297
4466.8533
4089.0671
4420.9826
5738.1941
4921.5593
3472.924
2869.0052
2719.7653
2700.559
2703.7655
2707.4977
2684.5919
2632.3601
2542.0726
2410.2056
2231.1294
2037.594
1811.4021
1709.4298
2246.5769
3176.4144
3796.5894
4125.6507
4284.3997
4357.3915
4379.1012
4377.3532
4341.6795
4224.293
4002.159
3632.0558
3170.4313
3125.6278
4598.5574
4365.9009
3103.7311
2341.351
2069.4717
1954.8541
1888.6129
1834.4307
1781.801
1718.5064
1647.155
1562.9695
1467.4698
1375.6957
1276.6002
1249.8383
1395.8987
2045.6777
2567.3781
2931.9729
3182.89
3355.7978
3464.7793
3529.0162
3535.2705
3446.6797
3245.8463
2884.6959
2438.9669
2218.0561
3618.868
3769.8712
2858.129
2071.5518
1714.6082
1531.8107
1419.268
1333.9289
1269.4349
1208.0343
1155.4603
1103.5774
1056.7944
1020.4312
977.96166
980.61409
838.74644
1251.2612
1608.9026
1906.0086
2151.2603
2343.9555
2473.1328
2562.081
2598.3903
2564.6139
2438.0023
2160.2426
1786.2182
1613.1882
2767.5009
3184.7405
2604.7433
1917.4337
1518.5699
1291.0033
1148.5964
1046.3677
976.88239
918.73811
879.3574
845.71735
825.18218
814.39911
799.91913
813.60667
474.98796
720.14917
931.28376
1126.0014
1299.4811
1431.2582
1546.7781
1648.6813
1721.514
1745.2723
1697.1585
1520.9815
1240.468
1186.6546
2036.9367
2637.6082
2335.2514
1800.164
1401.7999
1149.8633
988.89177
877.18086
805.1676
749.70436
717.98158
694.30096
685.51016
686.35705
686.29051
702.41065
247.63826
380.94052
493.63454
600.02979
702.13731
786.53471
866.4337
939.40997
999.08537
1034.4169
1028.7959
938.36827
762.88754
815.58419
1445.8257
2110.832
2024.326
1661.2426
1310.5487
1056.0116
887.2181
771.37975
698.07783
645.34653
616.77039
599.03602
594.60424
600.11654
606.40204
620.74934
116.96816
181.36093
235.07101
284.79736
333.15769
377.50177
417.04662
453.18645
481.83339
499.90134
500.44648
463.46234
381.69896
473.7421
988.91565
1603.666
1671.3788
1468.5676
1202.4393
972.64154
809.16617
695.71056
623.18001
573.87351
546.27723
531.72617
528.46343
534.41261
542.35577
553.30558
50.004429
77.105416
99.049353
118.84934
136.41025
153.51783
169.72625
184.4493
195.05225
200.46735
198.55429
184.23614
156.25643
223.13543
649.00641
1159.6335
1308.8689
1232.1993
1059.5308
877.94931
733.53058
629.90839
561.29673
516.22127
489.75041
476.57138
473.26058
477.46197
484.41774
491.92776
18.974641
30.496695
38.782065
45.334421
50.904315
56.652883
62.27086
67.412269
70.977988
72.420909
72.094982
67.311435
57.906173
91.721061
409.45919
808.78413
978.97135
980.5516
886.33618
763.0995
649.5634
562.54585
501.87724
461.83327
437.74155
425.21254
421.38354
423.02743
427.90989
432.68234
6.252987
10.728113
14.083279
16.750988
19.125409
21.328692
23.221845
24.791066
25.715895
25.971869
25.596018
23.772129
20.983122
40.311729
253.63347
549.63112
702.85553
742.21832
702.1255
629.75369
552.90776
487.47394
438.82186
405.28787
384.78913
373.16328
368.9965
368.67146
371.65878
374.72515
1.7456468
3.0594348
4.2062702
5.3097317
6.3221306
7.2170897
7.9100525
8.4507622
8.726554
8.7862852
8.5543566
7.984234
7.1460066
15.108213
153.51435
365.44283
489.4185
538.06519
529.95251
492.11071
444.78294
402.30977
368.84679
344.00239
328.47759
318.88098
315.37516
314.59209
316.67876
319.05693
0.45288111
0.72908675
0.98340238
1.273562
1.5692133
1.8569759
2.1021658
2.3059814
2.4349622
2.5001997
2.4744821
2.3352698
2.1363784
4.5136151
91.30457
238.30398
333.49511
379.36079
386.89372
370.70559
344.50652
318.13402
297.23837
281.36515
271.39412
264.99415
263.14411
263.2831
265.48963
267.89367
0.17118063
0.21535719
0.26190899
0.31725118
0.37785483
0.44187896
0.50263128
0.55932587
0.60432153
0.63970284
0.66024479
0.66689727
0.68842887
1.3477265
54.372596
153.12765
223.74061
263.64032
278.15275
275.16111
263.2567
248.79985
236.0991
226.72752
221.09241
217.62472
217.34534
218.51767
221.02898
223.537
0.12656236
0.13625215
0.14608971
0.15727341
0.17028131
0.18550872
0.20261929
0.22181492
0.24190709
0.26296049
0.28568506
0.31541734
0.37727727
0.67303321
33.504264
97.86431
148.71568
181.88278
198.86684
203.44532
200.65394
194.38961
188.03893
182.94716
180.18253
178.80374
179.52395
181.23773
183.77187
186.14499
0.12111727
0.12634584
0.13092825
0.13584861
0.14202
0.15009919
0.16050634
0.17341544
0.18857134
0.2056723
0.22632298
0.2558004
0.33796961
0.59061807
21.513455
62.759168
98.561902
125.01274
141.72911
149.99419
152.45738
151.3487
149.19344
146.69982
145.85425
146.05722
147.53728
149.57984
152.02444
154.19021
0.1199376
0.12407272
0.12779405
0.13184662