/*--------------------------------*- C++ -*----------------------------------*\
| =========                 |                                                 |
| \\      /  F ield         | OpenFOAM: The Open Source CFD Toolbox           |
|  \\    /   O peration     | Version:  2212                                  |
|   \\  /    A nd           | Website:  www.openfoam.com                      |
|    \\/     M anipulation  |                                                 |
\*---------------------------------------------------------------------------*/
FoamFile
{
    version     2.0;
    format      ascii;
    arch        "LSB;label=32;scalar=64";
    class       volScalarField;
    location    "0.064";
    object      p;
}
// * * * * * * * * * * * * * * * * * * * * * * * * * * * * * * * * * * * * * //

dimensions      [1 -1 -2 0 0 0 0];

internalField   nonuniform List<scalar> 
18080
(
121033.62
121032.25
121028.74
121023.4
121015.91
121005.8
120992.59
120975.72
120954.49
120928.06
120895.38
120855.19
120805.96
120745.8
120672.45
120583.19
120474.78
120343.4
120184.58
119993.17
119763.34
119488.63
119162.16
118776.78
118325.47
117801.79
117200.45
116518.03
115753.69
114909.84
113992.69
113012.61
111984.18
110925.64
109858.22
108804.82
107788.45
106830.6
105949.5
105158.74
104466.35
103874.57
103380.22
102975.75
102650.62
102392.79
102190.19
102031.71
121033.63
121032.25
121028.75
121023.4
121015.91
121005.8
120992.59
120975.71
120954.48
120928.04
120895.35
120855.16
120805.92
120745.76
120672.41
120583.16
120474.77
120343.42
120184.66
119993.32
119763.59
119489.03
119162.73
118777.57
118326.52
117803.13
117202.11
116520.01
115755.98
114912.4
113995.46
113015.5
111987.09
110928.47
109860.85
108807.16
107790.43
106832.18
105950.67
105159.52
104466.8
103874.74
103380.18
102975.57
102650.35
102392.49
102189.89
102031.42
121033.65
121032.26
121028.76
121023.41
121015.91
121005.81
120992.59
120975.71
120954.47
120928.03
120895.34
120855.15
120805.91
120745.74
120672.4
120583.16
120474.79
120343.48
120184.76
119993.5
119763.86
119489.41
119163.27
118778.29
118327.44
117804.29
117203.51
116521.67
115757.87
114914.49
113997.68
113017.77
111989.31
110930.53
109862.64
108808.58
107791.42
106832.7
105950.73
105159.16
104466.08
103873.76
103379.04
102974.35
102649.14
102391.35
102188.86
102030.51
121033.68
121032.28
121028.77
121023.43
121015.93
121005.82
120992.61
120975.73
120954.49
120928.04
120895.35
120855.15
120805.91
120745.75
120672.42
120583.19
120474.86
120343.6
120184.95
119993.79
119764.28
119490.01
119164.09
118779.37
118328.82
117806
117205.58
116524.09
115760.62
114917.5
114000.86
113021
111992.44
110933.41
109865.12
108810.53
107792.73
106833.33
105950.69
105158.5
104464.9
103872.19
103377.22
102972.43
102647.23
102389.54
102187.21
102029.05
121033.73
121032.32
121028.81
121023.46
121015.97
121005.86
120992.65
120975.77
120954.52
120928.08
120895.39
120855.19
120805.95
120745.8
120672.49
120583.3
120475.01
120343.81
120185.26
119994.22
119764.88
119490.81
119165.13
118780.71
118330.5
117808.04
117208
116526.87
115763.71
114920.82
114004.28
113024.37
111995.58
110936.11
109867.2
108811.84
107793.15
106832.82
105949.25
105156.24
104461.96
103868.77
103373.52
102968.65
102643.55
102386.1
102184.11
102026.31
121033.8
121032.38
121028.87
121023.53
121016.04
121005.94
120992.73
120975.85
120954.61
120928.17
120895.48
120855.29
120806.06
120745.93
120672.65
120583.5
120475.28
120344.17
120185.75
119994.87
119765.74
119491.93
119166.57
118782.51
118332.71
117810.69
117211.09
116530.38
115767.56
114924.9
114008.42
113028.37
111999.18
110939.08
109869.29
108812.84
107792.93
106831.31
105946.51
105152.38
104457.21
103863.39
103367.81
102962.9
102638
102380.95
102179.48
102022.25
121033.92
121032.49
121028.98
121023.65
121016.17
121006.07
120992.87
120976
120954.77
120928.34
120895.66
120855.49
120806.28
120746.19
120672.95
120583.88
120475.75
120344.77
120186.51
119995.84
119766.97
119493.49
119168.51
118784.89
118335.57
117814.05
117214.94
116534.66
115772.18
114929.68
114013.16
113032.77
112002.95
110941.88
109870.82
108812.84
107791.24
106827.86
105941.37
105145.75
104449.4
103854.78
103358.82
102953.92
102629.4
102372.99
102172.34
102016
121034.11
121032.67
121029.16
121023.84
121016.38
121006.3
120993.12
120976.26
120955.05
120928.64
120895.99
120855.85
120806.69
120746.65
120673.49
120584.51
120476.51
120345.71
120187.67
119997.28
119768.75
119495.67
119171.16
118788.06
118339.31
117818.37
117219.8
116539.99
115777.81
114935.4
114018.66
113037.7
112006.9
110944.44
109871.6
108811.52
107787.61
106821.88
105933.13
105135.54
104437.65
103842.03
103345.65
102940.89
102616.98
102361.56
102162.14
102007.12
121034.41
121032.96
121029.46
121024.16
121016.72
121006.67
120993.52
120976.7
120955.52
120929.15
120896.55
120856.46
120807.37
120747.41
120674.37
120585.54
120477.73
120347.16
120189.41
119999.38
119771.28
119498.71
119174.78
118792.31
118344.22
117823.93
117225.95
116546.59
115784.65
114942.17
114024.97
113043.08
112010.82
110946.39
109871.08
108808.15
107781.13
106812.24
105920.52
105120.35
104420.48
103823.61
103326.78
102922.34
102599.4
102345.45
102147.81
101994.68
121034.86
121033.41
121029.93
121024.65
121017.26
121007.26
120994.15
120977.39
120956.27
120929.96
120897.44
120857.44
120808.45
120748.63
120675.75
120587.13
120479.58
120349.33
120191.98
120002.42
119774.87
119502.93
119179.7
118797.98
118350.66
117831.09
117233.74
116554.8
115792.99
114950.21
114032.2
113048.9
112014.57
110947.39
109868.73
108801.96
107770.83
106797.79
105902.18
105098.69
104396.31
103797.93
103300.67
102896.82
102575.35
102323.53
102128.4
101977.9
121035.54
121034.1
121030.64
121025.41
121018.08
121008.15
120995.13
120978.45
120957.43
120931.22
120898.81
120858.94
120810.12
120750.5
120677.85
120589.53
120482.34
120352.52
120195.68
120006.73
119779.88
119508.72
119186.34
118805.52
118359.08
117840.32
117243.6
116565.01
115803.13
114959.74
114040.45
113055.09
112017.86
110946.96
109863.82
108791.99
107755.48
106777.07
105876.47
105068.75
104363.24
103763.07
103265.44
102862.58
102543.26
102294.43
102102.77
101955.86
121036.53
121035.1
121031.69
121026.53
121019.29
121009.47
120996.57
120980.02
120959.14
120933.09
120900.85
120861.18
120812.59
120753.24
120680.94
120593.01
120486.31
120357.06
120200.9
120012.72
119786.75
119516.56
119195.22
118815.45
118370.01
117852.12
117256.02
116577.65
115815.45
114971.02
114049.83
113061.6
112020.45
110944.6
109855.6
108777.22
107733.79
106748.53
105841.62
105028.61
104319.26
103717.01
103219.16
102817.86
102501.6
102256.88
102069.92
101927.79
121037.93
121036.53
121033.19
121028.13
121021.03
121011.37
120998.65
120982.28
120961.6
120935.77
120903.77
120864.38
120816.11
120757.15
120685.3
120597.92
120491.85
120363.35
120208.05
120020.85
119795.98
119526.98
119206.87
118828.33
118384.04
117867.07
117271.54
116593.22
115830.34
114984.33
114060.48
113068.36
112022.04
110939.77
109843.25
108756.54
107704.4
106710.55
105795.79
104976.27
104262.31
103657.69
103159.89
102760.93
102448.89
102209.72
102028.96
101893.04
121039.86
121038.5
121035.26
121030.35
121023.44
121014
121001.52
120985.41
120965.01
120939.47
120907.81
120868.79
120820.96
120762.5
120691.25
120604.57
120499.32
120371.78
120217.57
120031.59
119808.05
119540.48
119221.84
118844.74
118401.72
117885.73
117290.69
116612.19
115848.2
114999.95
114072.52
113075.33
112022.38
110931.98
109826.04
108728.97
107666.04
106661.64
105737.3
104909.92
104190.48
103583.26
103085.9
102690.28
102383.94
102152.08
101979.36
101851.35
121042.39
121041.09
121037.99
121033.28
121026.63
121017.49
121005.33
120989.56
120969.52
120944.38
120913.14
120874.61
120827.34
120769.53
120699.04
120613.25
120509.03
120382.68
120229.8
120045.31
119823.39
119557.52
119240.6
118865.13
118423.52
117908.55
117313.92
116634.95
115869.37
115018.13
114086.1
113082.51
112021.3
110920.87
109803.39
108693.71
107617.73
106600.62
105664.79
104828.08
104102.27
103492.24
102995.87
102604.82
102305.99
102083.54
101921.03
101802.9
121045.56
121044.34
121041.42
121036.99
121030.67
121021.92
121010.17
120994.84
120975.25
120950.59
120919.89
120881.97
120835.39
120778.38
120708.82
120624.11
120521.15
120396.22
120244.94
120062.22
119842.2
119578.32
119263.38
118889.77
118449.73
117935.82
117341.47
116661.73
115894.02
115039.02
114101.29
113089.92
112018.76
110906.33
109775.11
108650.45
107559.02
106526.9
105577.58
104729.98
103996.86
103383.84
102889.12
102504.13
102214.9
102004.35
101854.52
101748.47
121049.33
121048.21
121045.54
121041.44
121035.55
121027.28
121016.04
121001.23
120982.19
120958.11
120928.04
120890.84
120845.07
120789.01
120720.55
120637.12
120535.62
120412.35
120262.94
120082.26
119864.43
119602.81
119290.12
118918.58
118480.27
117967.48
117373.35
116692.59
115922.24
115062.67
114118.15
113097.59
112014.78
110888.39
109741.23
108599.27
107490.02
106440.61
105475.76
104615.66
103874.27
103258.09
102765.78
102388.49
102111.27
101915.41
101781.03
101689.39
121053.57
121052.58
121050.21
121046.53
121041.16
121033.47
121022.83
121008.62
120990.19
120966.77
120937.42
120901.02
120856.18
120801.2
120733.98
120651.99
120552.14
120430.75
120283.43
120105.04
119889.66
119630.58
119320.4
118951.13
118514.66
118003.01
117409.02
116727.03
115953.75
115089.1
114136.93
113105.95
112009.9
110867.7
109702.54
108541.08
107411.76
106342.89
105360.55
104486.38
103735.71
103116.17
102627
102259.16
101996.54
101818.42
101702.44
101627.62
121058.07
121057.23
121055.22
121052.04
121047.29
121040.27
121030.3
121016.76
120998.99
120976.26
120947.69
120912.16
120868.32
120814.5
120748.64
120668.22
120570.17
120450.82
120305.78
120129.89
119917.15
119660.75
119353.19
118986.35
118551.83
118041.38
117447.45
116764.01
115987.37
115117.14
114156.86
113114.77
112004.48
110845.11
109660.29
108477.45
107326.09
106235.81
105234.18
104344.45
103583.49
102960.27
102474.86
102118.18
101872.84
101715.65
101621.08
101565.35
121062.58
121061.91
121060.31
121057.72
121053.68
121047.41
121038.16
121025.3
121008.21
120986.2
120958.41
120923.78
120880.98
120828.37
120763.92
120685.14
120588.98
120471.77
120329.11
120155.79
119945.79
119692.23
119387.47
119023.24
118590.85
118081.72
117487.93
116803
116022.81
115146.59
114177.5
113123.55
111998.41
110821.14
109615.76
108410.38
107235.58
106122.34
105099.92
104193.29
103421.02
102793.66
102312.42
101968.39
101742.91
101609.84
101539.62
101504.97
121066.83
121066.36
121065.22
121063.29
121060.04
121054.59
121046.09
121033.89
121017.45
120996.13
120969.12
120935.38
120893.61
120842.21
120779.18
120702.05
120607.79
120492.72
120352.45
120181.76
119974.59
119723.98
119422.16
119060.65
118630.52
118122.85
117529.31
116842.99
116059.31
115177.12
114199.14
113133.01
111992.4
110796.66
109570.21
108341.8
107142.96
106005.92
104961.69
104037.06
103252.49
102620.35
102143.33
101813.09
101609.81
101503.91
101460.72
101448.62
121070.63
121070.37
121069.73
121068.51
121066.14
121061.54
121053.77
121042.2
121026.36
121005.68
120979.39
120946.49
120905.71
120855.48
120793.82
120718.28
120625.85
120512.88
120374.98
120206.91
120002.56
119754.9
119456.02
119097.26
118669.45
118163.35
117570.22
116882.67
116095.72
115207.84
114221.26
113143.2
111987.28
110773.12
109525.43
108273.81
107050.81
105889.85
104823.47
103880.21
103082.51
102444.78
101971.63
101655.82
101476.66
101400.72
101386.8
101397.98
121073.87
121073.82
121073.69
121073.23
121071.8
121068.07
121060.97
121049.94
121034.62
121014.52
120988.88
120956.75
120916.9
120867.75
120807.36
120733.32
120642.63
120531.67
120396.03
120230.47
120028.83
119784.01
119487.99
119131.94
118706.47
118202.01
117609.45
116920.93
116131
115237.91
114243.32
113153.91
111983.37
110751.56
109483.22
108208.9
106961.99
105777.31
104688.9
103726.92
102915.54
102271.39
101801.39
101500.02
101346.39
101302.81
101319.77
101354
121076.51
121076.66
121077.01
121077.33
121076.91
121074.04
121067.53
121056.95
121042.07
121022.46
120997.4
120965.96
120926.92
120878.75
120819.53
120746.86
120657.79
120548.67
120415.13
120251.9
120052.78
119810.62
119517.31
119163.86
118740.67
118237.88
117646.02
116956.77
116164.23
115266.53
114264.71
113164.8
111980.68
110732.44
109444.55
108148.8
106878.98
105671.17
104561.25
103580.78
102755.48
102104.16
101636.3
101348.8
101221.49
101212.21
101260.85
101316.98
121078.59
121078.9
121079.69
121080.8
121081.43
121079.37
121073.34
121063.11
121048.6
121029.4
121004.84
120973.99
120935.67
120888.37
120830.2
120758.76
120671.12
120563.67
120432.01
120270.88
120074.06
119834.34
119543.52
119192.49
118771.47
118270.32
117679.26
116989.52
116194.74
115293.1
114284.91
113175.51
111979.09
110715.96
109409.96
108094.5
106803.26
105573.68
104443.25
103444.74
102605.53
101946.4
101479.52
101204.79
101103.93
101130.4
101210.66
101286.71
121080.19
121080.62
121081.78
121083.66
121085.38
121084.05
121078.39
121068.42
121054.2
121035.35
121011.19
120980.85
120943.16
120896.63
120839.36
120768.99
120682.61
120576.62
120446.62
120287.35
120092.57
119855.02
119566.45
119217.63
118798.6
118299.02
117708.81
117018.78
116222.11
115317.18
114303.53
113185.72
111978.38
110702.07
109379.57
108046.45
106735.53
105485.88
104336.44
103320.8
102467.89
101800.53
101333.43
101069.93
100995.07
101058.28
101169.24
101262.58
121081.4
121081.91
121083.34
121085.96
121088.78
121088.08
121082.68
121072.91
121058.92
121040.34
121016.54
120986.63
120949.47
120903.58
120847.08
120777.64
120692.34
120587.6
120459.04
120301.39
120108.38
119872.75
119586.16
119239.29
118822.07
118323.94
117734.58
117044.44
116246.17
115338.58
114320.34
113195.19
111978.31
110690.6
109353.26
108004.68
106675.96
105408.16
104241.44
103209.92
102343.92
101668.13
101199.67
100945.6
100895.72
100996.21
101136.06
101243.56
121082.32
121082.85
121084.48
121087.78
121091.69
121091.49
121086.27
121076.65
121062.84
121044.49
121020.97
120991.42
120954.7
120909.35
120853.51
120784.85
120700.47
120596.79
120469.45
120313.18
120121.7
119887.71
119602.84
119257.69
118842.07
118345.24
117756.71
117066.59
116266.98
115357.27
114335.22
113203.74
111978.67
110681.27
109330.73
107968.89
106624.26
105340.36
104158.2
103112.22
102234.02
101549.81
101079.11
100832.55
100806.21
100944.04
101110.19
101228.44
121083.01
121083.53
121085.27
121089.2
121094.15
121094.35
121089.24
121079.73
121066.06
121047.89
121024.6
120995.34
120959
120914.1
120858.8
120790.79
120707.17
120604.4
120478.09
120322.99
120132.79
119900.2
119616.8
119273.13
118858.89
118363.23
117775.48
117085.46
116284.73
115373.37
114348.18
113211.32
111979.28
110673.78
109311.59
107938.6
106579.89
105281.91
104086.16
103027.19
102137.85
101445.57
100971.95
100731.02
100726.43
100901.21
101090.4
101216.01
121083.53
121084.03
121085.81
121090.3
121096.22
121096.7
121091.66
121082.24
121068.68
121050.65
121027.55
120998.54
120962.5
120917.97
120863.12
120795.64
120712.67
120610.63
120485.18
120331.06
120141.95
119910.53
119628.37
119285.95
118872.92
118378.26
117791.22
117101.37
116299.69
115387.07
114359.34
113217.93
111980.03
110667.82
109295.45
107913.22
106542.16
105232.05
104024.46
102954.01
102054.66
101354.81
100877.92
100640.86
100656.01
100866.8
101075.44
101205.3
121083.92
121084.38
121086.17
121091.15
121097.94
121098.62
121093.62
121084.27
121070.79
121052.87
121029.93
121001.11
120965.33
120921.1
120866.63
120799.59
120717.13
120615.71
120490.97
120337.65
120149.44
119919.01
119637.89
119296.53
118884.51
118390.72
117804.3
117114.65
116312.19
115398.6
114368.82
113223.6
111980.79
110663.09
109281.89
107892.1
106510.27
105189.83
103972.03
102891.53
101983.34
101276.56
100796.19
100561.63
100594.42
100839.79
101064.18
101195.74
121084.23
121084.63
121086.4
121091.81
121099.36
121100.17
121095.21
121085.9
121072.49
121054.66
121031.84
121003.19
120967.6
120923.62
120869.45
120802.77
120720.75
120619.83
120495.67
120343.02
120155.55
119925.93
119645.68
119305.2
118894.04
118400.99
117815.13
117125.69
116322.58
115408.26
114376.83
113228.44
111981.56
110659.39
109270.58
107874.67
106483.53
105154.35
103927.81
102838.6
101922.66
101209.64
100725.79
100492.61
100540.91
100818.98
101055.68
101187.08
121084.46
121084.81
121086.55
121092.31
121100.52
121101.42
121096.48
121087.21
121073.84
121056.09
121033.37
121004.84
120969.43
120925.64
120871.72
120805.33
120723.66
120623.15
120499.47
120347.36
120160.5
119931.55
119652.01
119312.26
118901.82
118409.38
117823.99
117134.76
116331.1
115416.24
114383.47
113232.45
111982.19
110656.4
109261.09
107860.23
106461.11
105124.63
103890.68
102794.01
101871.37
101152.8
100665.66
100433.15
100494.87
100803.25
101049.34
101179.45
121084.64
121084.95
121086.63
121092.7
121101.46
121102.41
121097.49
121088.24
121074.92
121057.23
121034.59
121006.17
120970.89
120927.27
120873.55
120807.4
120726.02
120625.84
120502.55
120350.9
120164.54
119936.14
119657.2
119318.06
118908.22
118416.31
117831.34
117142.32
116338.23
115422.97
114389.15
113235.99
111982.97
110654.27
109253.49
107848.68
106442.79
105100.27
103860.11
102757.14
101828.81
101105.44
100615
100383.18
100456.49
100792.35
101045.4
101174.07
121084.78
121085.04
121086.69
121093
121102.22
121103.2
121098.29
121089.07
121075.78
121058.14
121035.57
121007.25
120972.09
120928.61
120875.06
120809.11
120727.96
120628.07
120505.11
120353.83
120167.9
119939.97
119661.54
119322.94
118913.63
118422.2
117837.63
117148.85
116344.47
115428.98
114394.39
113239.56
111984.36
110653.42
109248.13
107840.24
106428.76
105081.32
103836.05
102727.87
101794.92
101067.63
100574.55
100343.37
100427.04
100787.89
101046.27
101173.79
121084.89
121085.12
121086.72
121093.23
121102.82
121103.81
121098.93
121089.74
121076.5
121058.91
121036.41
121008.17
120973.1
120929.73
120876.32
120810.54
120729.59
120629.94
120507.25
120356.3
120170.73
119943.22
119665.24
119327.12
118918.3
118427.33
117843.15
117154.67
116350.15
115434.59
114399.51
113243.45
111986.62
110654
109245.14
107834.93
106418.95
105067.67
103818.38
102706.13
101769.63
101039.42
100544.69
100313.96
100406.83
100789.6
101052.08
101178.53
121084.98
121085.17
121086.73
121093.4
121103.29
121104.3
121099.46
121090.31
121077.11
121059.57
121037.11
121008.92
120973.92
120930.64
120877.35
120811.71
120730.94
120631.49
120509.06
120358.39
120173.15
119946.01
119668.44
119330.75
118922.39
118431.87
117848.11
117159.97
116355.45
115439.97
114404.64
113247.74
111989.74
110655.95
109244.35
107832.48
106413.02
105058.84
103806.48
102691.14
101751.98
101019.61
100523.69
100293.24
100393.77
100794.76
101059.99
101185.39
121085.05
121085.21
121086.74
121093.53
121103.65
121104.7
121099.9
121090.78
121077.59
121060.06
121037.63
121009.49
120974.56
120931.37
120878.18
120812.68
120732.06
120632.8
120510.58
120360.17
120175.23
119948.42
119671.23
119333.95
118926.03
118435.94
117852.6
117164.84
116360.45
115445.17
114409.79
113252.38
111993.6
110659.05
109245.41
107832.37
106410.25
105053.88
103799.19
102681.46
101740.22
101006.14
100509.18
100278.77
100385.35
100800.88
101067.57
101191.96
121085.1
121085.24
121086.74
121093.63
121103.92
121105.01
121100.22
121091.1
121077.91
121060.4
121038.01
121009.92
120975.06
120931.95
120878.86
120813.47
120732.99
120633.9
120511.88
120361.7
120177.02
119950.52
119673.67
119336.77
118929.26
118439.59
117856.68
117169.32
116365.15
115450.15
114414.86
113257.18
111997.94
110662.93
109247.79
107833.95
106409.82
105051.79
103795.29
102675.68
101732.76
100997.23
100499.28
100268.68
100379.86
100806.67
101073.94
101197.25
121085.13
121085.26
121086.74
121093.69
121104.1
121105.19
121100.39
121091.27
121078.1
121060.62
121038.27
121010.24
120975.44
120932.4
120879.4
120814.11
120733.76
120634.82
120512.97
120362.99
120178.55
119952.33
119675.79
119339.24
118932.11
118442.84
117860.34
117173.4
116369.5
115454.83
114419.75
113261.98
112002.5
110667.23
109251.03
107836.65
106411
105051.7
103793.78
102672.66
101728.34
100991.55
100492.62
100261.63
100376.19
100811.52
101078.73
101200.92
121085.16
121085.27
121086.74
121093.72
121104.17
121105.23
121100.43
121091.32
121078.18
121060.74
121038.43
121010.44
120975.69
120932.72
120879.79
120814.6
120734.35
120635.53
120513.84
120364.05
120179.82
119953.84
119677.58
119341.35
118934.57
118445.68
117863.59
117177.06
116373.47
115459.16
114424.34
113266.63
112007.06
110671.7
109254.76
107840.02
106413.24
105052.95
103793.91
102671.55
101726.04
100988.11
100488.23
100256.67
100373.58
100815.14
101081.93
101203.03
121085.18
121085.28
121086.74
121093.74
121104.16
121105.19
121100.38
121091.29
121078.17
121060.75
121038.47
121010.51
120975.8
120932.87
120880.01
120814.88
120734.72
120636.01
120514.44
120364.8
120180.75
119954.99
119678.99
119343.05
118936.6
118448.06
117866.36
117180.22
116376.97
115463.05
114428.54
113270.98
112011.45
110676.12
109258.71
107843.74
106416.13
105055.1
103795.15
102671.77
101725.22
100986.25
100485.42
100253.17
100371.59
100817.55
101083.79
101203.92
121085.19
121085.29
121086.74
121093.74
121104.12
121105.11
121100.29
121091.2
121078.09
121060.67
121038.4
121010.45
120975.76
120932.85
120880.01
120814.92
120734.8
120636.15
120514.68
120365.15
120181.24
119955.65
119679.84
119344.15
118937.98
118449.76
117868.42
117182.68
116379.79
115466.26
114432.12
113274.8
112015.44
110680.26
109262.6
107847.56
106419.38
105057.81
103797.16
102672.94
101725.51
100985.6
100483.83
100250.77
100370.01
100818.98
101084.69
101204.05
121085.19
121085.29
121086.73
121093.74
121104.11
121105.07
121100.23
121091.13
121078
121060.58
121038.3
121010.34
120975.63
120932.71
120879.86
120814.75
120734.62
120635.96
120514.46
120364.93
120181.05
119955.53
119679.84
119344.28
118938.32
118450.36
117869.34
117183.98
116381.43
115468.3
114434.57
113277.62
112018.55
110683.64
109265.96
107850.99
106422.52
105060.63
103799.51
102674.67
101726.56
100985.85
100483.19
100249.07
100368.59
100819.68
101084.85
101203.64
121085.19
121085.29
121086.73
121093.74
121104.1
121105.06
121100.22
121091.11
121077.98
121060.55
121038.27
121010.3
120975.58
120932.63
120879.74
120814.59
120734.39
120635.65
120514.06
120364.42
120180.42
119954.74
119678.87
119343.12
118936.95
118448.8
117867.61
117182.15
116379.65
115466.7
114433.22
113276.49
112017.7
110683.13
109265.65
107850.95
106422.5
105060.62
103799.31
102674.14
101725.55
100984.22
100480.82
100245.85
100365.25
100817.6
101082.84
101201.08
121085.19
121085.28
121086.73
121093.73
121104.1
121105.06
121100.23
121091.12
121077.99
121060.57
121038.29
121010.32
120975.6
120932.66
120879.76
120814.6
120734.39
120635.61
120513.97
120364.23
120180.07
119954.18
119678.03
119341.91
118935.29
118446.58
117864.74
117178.54
116375.18
115461.33
114426.88
113269.08
112009.19
110673.6
109255.04
107839.45
106410.1
105047.36
103785.39
102659.57
101710.39
100968.48
100464.47
100228.85
100348.1
100801.52
101067.54
101186.81
121085.19
121085.28
121086.73
121093.73
121104.1
121105.06
121100.23
121091.13
121078.01
121060.59
121038.31
121010.36
120975.65
120932.71
120879.83
120814.68
120734.49
120635.73
120514.1
120364.37
120180.2
119954.27
119678.04
119341.8
118934.98
118445.96
117863.65
117176.78
116372.49
115457.43
114421.55
113262.12
112000.38
110662.78
109242.06
107824.32
106392.8
105028.02
103764.15
102636.67
101686.08
100943.07
100438.33
100202.48
100322.04
100776.38
101043.11
101163.65
121085.18
121085.28
121086.73
121093.73
121104.1
121105.06
121100.24
121091.13
121078.02
121060.61
121038.33
121010.38
120975.69
120932.76
120879.9
120814.77
120734.59
120635.86
120514.26
120364.57
120180.45
119954.57
119678.4
119342.23
118935.45
118446.44
117864.09
117177.1
116372.55
115457.06
114420.6
113260.46
111997.79
110659.09
109237.07
107817.86
106384.76
105018.34
103752.85
102623.84
101671.93
100927.89
100422.57
100186.75
100306.86
100761.7
101028.58
101148.84
101321.69
101321.04
101321.12
101321.06
101320.97
101320.92
101320.89
101320.82
101320.7
101320.56
101320.37
101320.06
101319.52
101318.04
101314.12
101317.8
101319.59
101320.16
101320.66
101320.77
101320.64
101320.41
101320.06
101318.94
101317.89
101316.87
101314.54
101312.03
101309.64
101306.92
101321.69
101321.04
101321.12
101321.06
101320.97
101320.92
101320.89
101320.82
101320.7
101320.56
101320.37
101320.06
101319.52
101318.05
101314.12
101317.79
101319.59
101320.16
101320.66
101320.77
101320.64
101320.42
101320.07
101318.96
101317.91
101316.9
101314.6
101312.11
101309.75
101307.4
101321.68
101321.04
101321.12
101321.06
101320.97
101320.92
101320.89
101320.82
101320.7
101320.56
101320.37
101320.06
101319.52
101318.05
101314.12
101317.79
101319.59
101320.15
101320.66
101320.77
101320.64
101320.42
101320.08
101318.96
101317.92
101316.92
101314.63
101312.16
101309.8
101307.7
101321.68
101321.05
101321.12
101321.06
101320.97
101320.92
101320.89
101320.82
101320.7
101320.56
101320.37
101320.06
101319.52
101318.06
101314.13
101317.77
101319.58
101320.15
101320.66
101320.77
101320.64
101320.42
101320.08
101318.98
101317.93
101316.96
101314.69
101312.24
101309.91
101308.13
101321.67
101321.05
101321.12
101321.06
101320.97
101320.92
101320.89
101320.82
101320.7
101320.56
101320.37
101320.06
101319.52
101318.06
101314.14
101317.76
101319.57
101320.15
101320.66
101320.77
101320.64
101320.42
101320.09
101318.99
101317.95
101316.99
101314.76
101312.34
101310.02
101308.56
101321.66
101321.05
101321.13
101321.06
101320.97
101320.92
101320.89
101320.82
101320.71
101320.56
101320.37
101320.07
101319.52
101318.07
101314.17
101317.75
101319.57
101320.15
101320.66
101320.78
101320.64
101320.43
101320.1
101319.01
101317.97
101317.04
101314.84
101312.46
101310.15
101309.01
101321.66
101321.05
101321.13
101321.06
101320.97
101320.92
101320.89
101320.82
101320.71
101320.56
101320.37
101320.07
101319.52
101318.09
101314.2
101317.74
101319.57
101320.15
101320.66
101320.78
101320.65
101320.43
101320.12
101319.03
101317.99
101317.08
101314.93
101312.6
101310.32
101309.44
101321.65
101321.06
101321.13
101321.06
101320.98
101320.92
101320.89
101320.82
101320.71
101320.56
101320.37
101320.07
101319.52
101318.11
101314.25
101317.73
101319.57
101320.15
101320.66
101320.78
101320.65
101320.44
101320.13
101319.06
101318.02
101317.14
101315.03
101312.77
101310.54
101309.83
101321.64
101321.06
101321.13
101321.06
101320.98
101320.93
101320.89
101320.82
101320.71
101320.56
101320.37
101320.07
101319.52
101318.14
101314.32
101317.72
101319.57
101320.15
101320.67
101320.79
101320.66
101320.45
101320.14
101319.08
101318.05
101317.2
101315.15
101312.97
101310.83
101310.17
101321.63
101321.07
101321.13
101321.06
101320.98
101320.93
101320.89
101320.82
101320.71
101320.56
101320.37
101320.07
101319.52
101318.17
101314.41
101317.72
101319.56
101320.15
101320.67
101320.79
101320.66
101320.45
101320.16
101319.12
101318.08
101317.27
101315.28
101313.2
101311.22
101310.5
101321.62
101321.08
101321.13
101321.06
101320.98
101320.93
101320.89
101320.82
101320.71
101320.56
101320.37
101320.07
101319.52
101318.21
101314.53
101317.71
101319.55
101320.15
101320.67
101320.8
101320.67
101320.46
101320.18
101319.16
101318.12
101317.35
101315.44
101313.46
101311.73
101310.9
101321.61
101321.08
101321.13
101321.06
101320.98
101320.93
101320.89
101320.82
101320.71
101320.56
101320.37
101320.07
101319.52
101318.26
101314.67
101317.71
101319.53
101320.15
101320.67
101320.81
101320.68
101320.47
101320.2
101319.2
101318.16
101317.44
101315.62
101313.74
101312.33
101311.47
101321.59
101321.09
101321.13
101321.07
101320.98
101320.93
101320.89
101320.82
101320.71
101320.56
101320.37
101320.07
101319.53
101318.33
101314.84
101317.72
101319.52
101320.14
101320.67
101320.81
101320.68
101320.48
101320.23
101319.26
101318.22
101317.54
101315.83
101314.02
101312.98
101312.25
101321.57
101321.1
101321.13
101321.07
101320.98
101320.93
101320.89
101320.82
101320.71
101320.56
101320.38
101320.08
101319.53
101318.4
101315.04
101317.74
101319.5
101320.13
101320.66
101320.81
101320.69
101320.49
101320.26
101319.34
101318.28
101317.66
101316.07
101314.31
101313.59
101313.21
101321.56
101321.12
101321.13
101321.07
101320.98
101320.93
101320.89
101320.82
101320.71
101320.57
101320.38
101320.08
101319.54
101318.48
101315.27
101317.77
101319.49
101320.11
101320.64
101320.81
101320.69
101320.5
101320.29
101319.42
101318.35
101317.79
101316.34
101314.61
101314.06
101314.14
101321.54
101321.13
101321.14
101321.07
101320.98
101320.93
101320.9
101320.83
101320.71
101320.57
101320.38
101320.08
101319.55
101318.56
101315.54
101317.8
101319.49
101320.11
101320.63
101320.8
101320.69
101320.5
101320.32
101319.51
101318.44
101317.92
101316.65
101314.99
101314.36
101314.77
101321.51
101321.15
101321.14
101321.07
101320.99
101320.94
101320.9
101320.83
101320.71
101320.57
101320.38
101320.09
101319.56
101318.66
101315.83
101317.86
101319.48
101320.1
101320.62
101320.8
101320.68
101320.5
101320.34
101319.62
101318.54
101318.06
101316.97
101315.46
101314.58
101314.99
101321.49
101321.16
101321.14
101321.07
101320.99
101320.94
101320.9
101320.83
101320.72
101320.57
101320.39
101320.1
101319.58
101318.77
101316.15
101317.92
101319.48
101320.1
101320.62
101320.81
101320.68
101320.51
101320.36
101319.75
101318.67
101318.21
101317.31
101316.01
101314.91
101314.96
101321.47
101321.18
101321.14
101321.08
101321
101320.95
101320.91
101320.84
101320.72
101320.58
101320.4
101320.11
101319.6
101318.88
101316.51
101318.01
101319.49
101320.1
101320.61
101320.82
101320.69
101320.52
101320.38
101319.89
101318.84
101318.35
101317.69
101316.61
101315.44
101315
101321.44
101321.19
101321.15
101321.08
101321
101320.96
101320.92
101320.84
101320.73
101320.58
101320.4
101320.13
101319.63
101319.01
101316.88
101318.11
101319.5
101320.11
101320.61
101320.83
101320.69
101320.54
101320.39
101320.05
101319.08
101318.47
101318.1
101317.28
101316.2
101315.4
101321.42
101321.21
101321.15
101321.08
101321.01
101320.97
101320.92
101320.85
101320.73
101320.59
101320.41
101320.15
101319.68
101319.14
101317.29
101318.24
101319.52
101320.12
101320.6
101320.84
101320.71
101320.56
101320.4
101320.2
101319.39
101318.61
101318.43
101317.94
101317.16
101316.35
101321.4
101321.22
101321.15
101321.09
101321.02
101320.98
101320.93