/*--------------------------------*- C++ -*----------------------------------*\
| =========                 |                                                 |
| \\      /  F ield         | OpenFOAM: The Open Source CFD Toolbox           |
|  \\    /   O peration     | Version:  2212                                  |
|   \\  /    A nd           | Website:  www.openfoam.com                      |
|    \\/     M anipulation  |                                                 |
\*---------------------------------------------------------------------------*/
FoamFile
{
    version     2.0;
    format      ascii;
    arch        "LSB;label=32;scalar=64";
    class       volVectorField;
    location    "0.064";
    object      U;
}
// * * * * * * * * * * * * * * * * * * * * * * * * * * * * * * * * * * * * * //

dimensions      [0 1 -1 0 0 0 0];

internalField   nonuniform List<vector> 
18080
(
(17.711321 6.2116163e-11 -0.00037312181)
(17.81028 6.3467943e-11 -0.0023673591)
(17.988062 -8.1151571e-10 -0.0039794371)
(18.242569 2.4870111e-10 -0.005724372)
(18.584376 1.8956399e-10 -0.0076765337)
(19.02601 1.5202691e-10 -0.0098741729)
(19.579 -1.364923e-09 -0.012333807)
(20.255173 -9.5043557e-10 -0.015067504)
(21.067484 -7.2537726e-10 -0.018083497)
(22.030013 1.165298e-10 -0.021385239)
(23.157822 -5.9289426e-10 -0.024971633)
(24.466954 -5.3398072e-10 -0.028837197)
(25.974484 -4.8457568e-10 -0.032970112)
(27.698591 1.9904741e-10 -0.037352152)
(29.658485 1.0881312e-10 -0.041951742)
(31.87429 7.9826644e-11 -0.04672063)
(34.366708 6.2553998e-11 -0.051581414)
(37.156593 3.7156076e-11 -0.056402725)
(40.264323 -4.9877663e-10 -0.060904622)
(43.709105 -4.1002991e-10 -0.06397189)
(47.507811 -8.434051e-10 -0.067152921)
(51.67367 2.5660139e-10 -0.070555132)
(56.214958 2.3780349e-10 -0.073777957)
(61.133394 6.3564065e-10 -0.076591155)
(66.42245 5.8942725e-10 -0.078833094)
(72.065877 5.4273772e-10 -0.080383794)
(78.036171 4.9857142e-10 -0.081180332)
(84.29348 4.670145e-10 -0.081197204)
(90.786156 4.3989502e-10 -0.080429714)
(97.448692 4.1634601e-10 -0.079020813)
(104.20435 5.6670474e-10 -0.077049784)
(110.96718 5.4070277e-10 -0.074641062)
(117.64387 6.6321592e-10 -0.072005102)
(124.13698 6.2866564e-10 -0.069310171)
(130.35222 4.3588008e-10 -0.066619629)
(136.19924 4.2655409e-10 -0.064036754)
(141.60096 5.4843557e-10 -0.06149297)
(146.49568 5.191496e-10 -0.05891317)
(150.84232 4.9538322e-10 -0.056146321)
(154.62287 4.7527704e-10 -0.05304176)
(157.84278 4.5810148e-10 -0.049491594)
(160.52936 3.4465091e-10 -0.045473183)
(162.72786 4.2409119e-10 -0.041068344)
(164.49599 5.0840915e-10 -0.036446734)
(165.89745 4.9117347e-10 -0.031788607)
(166.99605 4.737548e-10 -0.027274129)
(167.85213 4.0939019e-10 -0.023147122)
(168.51538 4.0192862e-10 -0.019439115)
(17.711033 2.7253347e-10 -0.0027794963)
(17.809987 2.0180023e-10 -0.0067808345)
(17.987525 -4.3436282e-10 -0.010517798)
(18.241676 -3.4906908e-10 -0.014729059)
(18.583025 2.3447795e-10 -0.01942568)
(19.024098 2.0494348e-10 -0.024642473)
(19.576423 1.3129458e-10 -0.030411736)
(20.251826 1.0498443e-10 -0.036767432)
(21.063257 -3.0059457e-10 -0.043742876)
(22.024788 -2.9058465e-10 -0.051371554)
(23.151475 -2.9321335e-10 -0.059690622)
(24.459344 -6.5367161e-10 -0.068743973)
(25.965454 -5.9784414e-10 -0.078581943)
(27.687966 -1.7736081e-10 -0.089263635)
(29.646064 -4.8098416e-10 -0.10084888)
(31.859848 -9.5174949e-11 -0.11339553)
(34.349997 -5.4318586e-11 -0.12695122)
(37.137346 -1.838464e-10 -0.14154274)
(40.242299 -2.0808466e-11 -0.15714445)
(43.683949 1.2810959e-10 -0.17347758)
(47.479127 1.1338238e-10 -0.19111125)
(51.641147 2.5710054e-10 -0.2098748)
(56.178327 1.2994105e-10 -0.22948727)
(61.092422 9.5615274e-12 -0.24972147)
(66.376968 2.5389519e-11 -0.27027866)
(72.015801 1.5742163e-10 -0.29074541)
(77.981524 1.6445599e-10 -0.31055275)
(84.234408 2.7990466e-10 -0.32906046)
(90.722923 2.7965387e-10 -0.34561941)
(97.381672 2.8502629e-10 -0.35943623)
(104.13402 2.9003303e-10 -0.36975475)
(110.8941 2.9281161e-10 -0.37590412)
(117.56862 2.9518112e-10 -0.37728004)
(124.06016 2.9615474e-10 -0.37342119)
(130.27437 2.9714248e-10 -0.36418994)
(136.1208 2.9818854e-10 -0.34964978)
(141.52228 2.9792464e-10 -0.33023392)
(146.41696 3.2259463e-10 -0.30665351)
(150.76365 3.5545756e-10 -0.27987149)
(154.54418 3.5062575e-10 -0.25103714)
(157.76394 3.4211415e-10 -0.22138292)
(160.45014 3.174489e-10 -0.19211838)
(162.64801 2.8135869e-10 -0.16432237)
(164.41528 2.7394791e-10 -0.1388464)
(165.81566 2.6689796e-10 -0.11623413)
(166.91313 2.6067039e-10 -0.096731874)
(167.76807 2.5519708e-10 -0.080369712)
(168.43011 2.5045988e-10 -0.066763146)
(17.710443 1.4138738e-11 -0.0046355179)
(17.809406 -2.2095669e-10 -0.011578043)
(17.986641 4.8310091e-11 -0.018354101)
(18.240323 4.2880112e-11 -0.025977324)
(18.581061 4.4350166e-11 -0.03448054)
(19.021378 4.3167688e-11 -0.043954703)
(19.572798 3.9139193e-11 -0.054483716)
(20.247148 2.3710653e-10 -0.066135492)
(21.057375 2.0820549e-10 -0.078962235)
(22.01755 2.5814486e-12 -0.09300526)
(23.142723 -1.6563019e-11 -0.10830119)
(24.448916 1.2554976e-10 -0.12488655)
(25.953173 2.7868486e-10 -0.14279585)
(27.673645 2.6252267e-10 -0.16206371)
(29.629497 3.9307624e-10 -0.18271215)
(31.840811 3.7796526e-10 -0.20474776)
(34.328243 3.6644794e-10 -0.22815156)
(37.112603 2.184125e-10 -0.25287339)
(40.214255 2.0378836e-10 -0.27883459)
(43.652306 1.9279485e-10 -0.3060083)
(47.443605 1.8766079e-10 -0.33398538)
(51.601451 1.8487377e-10 -0.36237832)
(56.134159 1.2594983e-10 -0.39084478)
(61.043512 1.2367098e-10 -0.41896431)
(66.323099 1.2280256e-10 -0.44623144)
(71.956836 1.2516423e-10 -0.4721436)
(77.917421 1.263858e-10 -0.49622737)
(84.165237 1.2989738e-10 -0.51784825)
(90.648892 8.9412707e-11 -0.53642679)
(97.30312 1.3804184e-10 -0.55104016)
(104.05142 1.4594077e-10 -0.56089847)
(110.80804 1.5051063e-10 -0.56533985)
(117.47977 1.5428998e-10 -0.56363396)
(123.96922 1.5774069e-10 -0.55509247)
(130.18202 1.9833717e-10 -0.53960958)
(136.02764 2.1598837e-10 -0.51696192)
(141.42877 2.0015148e-10 -0.48769266)
(146.32341 1.9731929e-10 -0.45257894)
(150.67018 1.9777245e-10 -0.41285484)
(154.45073 1.6714444e-10 -0.3701117)
(157.6703 1.5779594e-10 -0.32613846)
(160.35603 1.5891645e-10 -0.28275251)
(162.55307 1.5868335e-10 -0.24159842)
(164.31918 1.5786802e-10 -0.20396828)
(165.71815 1.4544584e-10 -0.170609)
(166.81408 1.4521809e-10 -0.14177895)
(167.66748 1.4403118e-10 -0.11758388)
(168.3279 1.4280517e-10 -0.097545261)
(17.709391 -5.9426358e-12 -0.0078760527)
(17.808378 1.0763449e-10 -0.018376154)
(17.985281 8.7164508e-11 -0.028955073)
(18.238435 5.9812281e-11 -0.040826833)
(18.578499 2.660242e-11 -0.054046072)
(19.017991 -1.4172321e-13 -0.06873189)
(19.568436 -2.178655e-11 -0.084995165)
(20.241655 -2.7280866e-11 -0.10292516)
(21.050593 -3.2501772e-11 -0.12259352)
(22.009311 -3.9150258e-11 -0.14406362)
(23.132846 -1.3571043e-10 -0.16739998)
(24.437203 -4.8392057e-11 -0.19267441)
(25.939409 -4.4521443e-11 -0.21996362)
(27.65759 4.0133533e-11 -0.24935338)
(29.610887 4.1545552e-11 -0.28092015)
(31.819354 4.5972293e-11 -0.31472584)
(34.30362 5.0769816e-11 -0.35080281)
(37.084473 -1.5116221e-11 -0.38913803)
(40.182262 -7.86137e-11 -0.42965046)
(43.61608 -7.0337649e-11 -0.47214767)
(47.402766 7.3619374e-12 -0.51640503)
(51.555637 1.4198662e-11 -0.56209575)
(56.083053 2.0147966e-11 -0.60871943)
(60.986865 2.8698204e-11 -0.65560575)
(66.260743 3.9580103e-11 -0.70192233)
(71.888701 7.6595728e-11 -0.74673149)
(77.843571 5.9883107e-11 -0.78899032)
(84.085907 9.7067513e-11 -0.82742105)
(90.564493 1.2959785e-10 -0.86076562)
(97.21421 1.3503862e-10 -0.88741192)
(103.9587 1.40418e-10 -0.90590098)
(110.71233 1.4540953e-10 -0.91499043)
(117.38194 1.499446e-10 -0.91351337)
(123.87015 1.532192e-10 -0.90051399)
(130.08252 1.5514497e-10 -0.87583161)
(135.92841 1.5585698e-10 -0.83941554)
(141.33031 1.5604005e-10 -0.79221955)
(146.22601 1.5571525e-10 -0.73564895)
(150.57385 1.7044654e-10 -0.67176043)
(154.35531 1.6026664e-10 -0.60311399)
(157.5754 1.5127465e-10 -0.53254201)
(160.26115 1.494472e-10 -0.46289208)
(162.45766 1.4757067e-10 -0.39673126)
(164.22271 1.4545668e-10 -0.33608547)
(165.62019 1.3784505e-10 -0.28219197)
(166.7144 1.2957401e-10 -0.2355502)
(167.56598 1.2905067e-10 -0.19628426)
(168.22438 1.2792261e-10 -0.16376183)
(17.707646 -7.4808246e-11 -0.011620336)
(17.806656 -1.3225857e-10 -0.026557018)
(17.983185 -1.0338486e-10 -0.041900184)
(18.235736 -2.0069161e-10 -0.059052117)
(18.575039 -2.9664904e-10 -0.078115949)
(19.013613 -2.6980382e-10 -0.099267087)
(19.562978 -2.4562097e-10 -0.12266802)
(20.234953 -1.0988821e-10 -0.14844876)
(21.042471 -1.072393e-10 -0.17671053)
(21.999583 -1.0508074e-10 -0.20753854)
(23.121309 -1.0395484e-10 -0.24101465)
(24.423635 -1.0290166e-10 -0.27722617)
(25.923565 -4.4846633e-12 -0.3162624)
(27.639197 -3.088914e-12 -0.35821956)
(29.589646 -2.8001179e-12 -0.4031752)
(31.794937 4.3235257e-11 -0.45118209)
(34.275673 4.5660465e-11 -0.50224614)
(37.052615 9.0980207e-11 -0.55630794)
(40.146096 4.8922899e-11 -0.61322075)
(43.575199 5.3767135e-11 -0.6727319)
(47.356778 9.6293663e-11 -0.73445371)
(51.504176 1.0148129e-10 -0.79782404)
(56.025805 1.0639925e-10 -0.86210205)
(60.923588 1.4704238e-10 -0.92636374)
(66.191303 1.8401704e-10 -0.98947838)
(71.813099 1.8723725e-10 -1.050115)
(77.761975 1.8958771e-10 -1.1067006)
(83.998661 1.5971132e-10 -1.157508)
(90.472138 1.6304296e-10 -1.2009205)
(97.117456 1.4949279e-10 -1.2348572)
(103.85842 1.6372282e-10 -1.257428)
(110.60954 1.6466281e-10 -1.2670535)
(117.27772 1.6437379e-10 -1.2622487)
(123.76556 1.5159561e-10 -1.2417703)
(129.97855 1.3713731e-10 -1.2054646)
(135.82586 1.2515772e-10 -1.1532763)
(141.22976 1.2489578e-10 -1.0865247)
(146.1277 1.2327957e-10 -1.0071298)
(150.47774 1.2140194e-10 -0.91790352)
(154.26102 1.1892978e-10 -0.82236044)
(157.48231 1.1641429e-10 -0.72439945)
(160.16847 1.1397233e-10 -0.62794876)
(162.36457 1.1868634e-10 -0.53655124)
(164.1284 1.1578607e-10 -0.45299691)
(165.52403 1.1314947e-10 -0.37894067)
(166.61598 1.1538892e-10 -0.31497875)
(167.46513 1.1310678e-10 -0.26128322)
(168.1209 1.116791e-10 -0.21709776)
(17.704762 -9.8997917e-13 -0.016280324)
(17.803774 8.0611141e-11 -0.036820107)
(17.979863 1.5815628e-10 -0.058174113)
(18.231695 2.1470163e-10 -0.081914175)
(18.570103 1.1409053e-10 -0.10822387)
(19.007618 3.0936837e-11 -0.13735038)
(19.555755 2.8144149e-11 -0.16950515)
(20.226328 2.1288786e-11 -0.20485104)
(21.03226 -5.3427938e-11 -0.24351071)
(21.987583 -5.4174667e-11 -0.28558685)
(23.107294 -5.6151598e-11 -0.33118121)
(24.40735 -5.822082e-11 -0.38040663)
(25.90472 -1.7587456e-12 -0.43338231)
(27.617471 -6.1783268e-12 -0.49023969)
(29.564681 -8.0725102e-12 -0.55108783)
(31.766342 4.6178067e-11 -0.6160055)
(34.243027 4.4861916e-11 -0.68500902)
(37.015476 4.5087486e-11 -0.75802658)
(40.104007 4.5522649e-11 -0.83486508)
(43.527709 9.1262808e-11 -0.9151733)
(47.303459 9.1294743e-11 -0.99842405)
(51.444646 1.1254011e-10 -1.0838728)
(55.959757 1.1045633e-10 -1.1705295)
(60.850826 1.087823e-10 -1.2571349)
(66.111771 1.0734618e-10 -1.3421343)
(71.726918 1.2496554e-10 -1.4237075)
(77.669464 1.219322e-10 -1.4997435)
(83.900361 1.1868076e-10 -1.5679222)
(90.368828 1.1537844e-10 -1.6260326)
(97.010115 1.1203794e-10 -1.6712794)
(103.74821 1.0873017e-10 -1.7011083)
(110.49777 9.6591762e-11 -1.7133909)
(117.16576 9.4424387e-11 -1.7061667)
(123.65471 9.1362097e-11 -1.6778232)
(129.87001 8.0930466e-11 -1.628171)
(135.72056 8.6456998e-11 -1.5572144)
(141.12829 8.4012851e-11 -1.4667394)
(146.03027 8.2614351e-11 -1.3593604)
(150.38411 8.2068163e-11 -1.2388685)
(154.17055 7.6767977e-11 -1.1099866)
(157.39403 7.6908221e-11 -0.97794615)
(160.0812 7.7384904e-11 -0.84801172)
(162.27705 7.3469812e-11 -0.72492806)
(164.03948 7.5139007e-11 -0.61243241)
(165.43275 8.0486696e-11 -0.51276151)
(166.52171 8.6827261e-11 -0.42674012)
(167.36758 8.7344059e-11 -0.35455665)
(168.01976 8.7532442e-11 -0.29527009)
(17.700061 -1.5313796e-13 -0.022196437)
(17.799032 1.8997336e-13 -0.049582085)
(17.974578 4.8789834e-11 -0.078344246)
(18.225516 -4.3227547e-11 -0.11018039)
(18.56282 -4.0925045e-11 -0.14536438)
(18.999048 -1.0616148e-12 -0.18423649)
(19.545718 -7.7097367e-12 -0.22706612)
(20.214635 -5.378974e-11 -0.27405622)
(21.01871 -9.5412023e-11 -0.32535717)
(21.97195 -5.7110892e-11 -0.38109363)
(23.08932 -5.8151568e-11 -0.44138897)
(24.38674 -5.8146131e-11 -0.50638035)
(25.88114 -5.7770775e-11 -0.57621223)
(27.590546 -5.7158531e-11 -0.65104294)
(29.533997 -2.2080703e-11 -0.73099932)
(31.731451 1.0759409e-11 -0.81616685)
(34.203453 1.3262618e-11 -0.90654602)
(36.970726 1.565829e-11 -1.0020199)
(40.053587 1.9199473e-11 -1.1023115)
(43.471142 -6.4264197e-12 -1.2069391)
(47.240309 2.71967e-11 -1.315191)
(51.374551 -1.715205e-13 -1.4260678)
(55.882463 2.7112148e-12 -1.5382479)
(60.766221 6.063886e-12 -1.6500636)
(66.019926 9.6380827e-12 -1.759474)
(71.628119 -5.6285397e-14 -1.8641042)
(77.564241 4.2516014e-12 -1.9612132)
(83.789507 -4.2021164e-12 -2.0477974)
(90.253418 1.5589992e-12 -2.1210095)
(96.891446 7.3324916e-12 -2.1772877)
(103.62779 1.3282793e-11 -2.2133896)
(110.37724 1.9910194e-11 -2.2266381)
(117.04681 2.7150882e-11 -2.2145909)
(123.53894 2.4422974e-11 -2.1752521)
(129.75884 2.742393e-11 -2.1084534)
(135.61504 3.0626338e-11 -2.0142744)
(141.02905 4.7266525e-11 -1.8950759)
(145.93737 5.7835128e-11 -1.7542808)
(150.29705 6.7187394e-11 -1.5968166)
(154.08829 6.8233339e-11 -1.4288047)
(157.31509 7.3521049e-11 -1.257014)
(160.00383 7.8114125e-11 -1.0882478)
(162.19945 8.1861121e-11 -0.9286305)
(163.95998 8.4862832e-11 -0.78297787)
(165.34999 9.0531314e-11 -0.65414654)
(166.43478 9.1874639e-11 -0.54314301)
(167.27604 9.2746609e-11 -0.45016307)
(167.92333 9.0203977e-11 -0.37401793)
(17.692548 -2.1736665e-12 -0.02965233)
(17.791378 -1.6882913e-12 -0.065346596)
(17.966204 -8.4232988e-13 -0.10319149)
(18.215978 2.7469791e-11 -0.14494489)
(18.551856 -2.77188e-11 -0.19096379)
(18.986448 -7.866894e-11 -0.24170243)
(19.531283 -7.3415915e-11 -0.29749215)
(20.198161 -6.8799678e-11 -0.35857272)
(20.999976 -6.4862643e-11 -0.4251164)
(21.950706 -6.136173e-11 -0.49726311)
(23.065275 -5.8182284e-11 -0.57515283)
(24.359555 -3.2773192e-11 -0.65894525)
(25.850429 -2.9324242e-11 -0.74881123)
(27.555873 -2.5467982e-11 -0.84494033)
(29.494883 -1.997841e-11 -0.94748252)
(31.687383 6.7125333e-12 -1.0565367)
(34.153893 3.0914066e-11 -1.1720914)
(36.915129 3.4027676e-11 -1.2939841)
(39.99142 5.7527968e-11 -1.4218464)
(43.401911 6.0342068e-11 -1.5550465)
(47.163593 6.3683996e-11 -1.6926562)
(51.290035 4.8470259e-11 -1.8333795)
(55.789981 5.0732167e-11 -1.9755105)
(60.665799 5.3867123e-11 -2.1169046)
(65.911823 5.732759e-11 -2.254945)
(71.512866 5.2194222e-11 -2.3865945)
(77.442667 7.3067426e-11 -2.5083619)
(83.662756 7.6365544e-11 -2.616436)
(90.12296 7.9722516e-11 -2.7072117)
(96.759001 8.2983127e-11 -2.7762248)
(103.4953 8.6093761e-11 -2.8194211)
(110.2468 9.6258116e-11 -2.8334728)
(116.9205 1.0656856e-10 -2.8153765)
(123.41871 1.0877861e-10 -2.7627096)
(129.64637 1.106559e-10 -2.6753382)
(135.5115 1.1203826e-10 -2.5534687)
(140.93502 1.1916876e-10 -2.4001528)
(145.85273 1.1899481e-10 -2.2197841)
(150.22091 1.1647304e-10 -2.0186376)
(154.01903 1.158855e-10 -1.8044791)
(157.25056 1.1473381e-10 -1.5858799)
(159.94151 1.151558e-10 -1.3714439)
(162.13678 1.1335503e-10 -1.1689089)
(163.89461 1.108461e-10 -0.98435122)
(165.28002 1.0803345e-10 -0.82137182)
(166.35896 1.0521857e-10 -0.6812228)
(167.19373 1.025868e-10 -0.56406791)
(167.83425 9.7950616e-11 -0.46837225)
(17.680767 -3.8849689e-11 -0.038790548)
(17.77927 4.046339e-12 -0.084556748)
(17.953094 6.2358258e-12 -0.13344674)
(18.201305 8.280469e-12 -0.1872407)
(18.53528 7.8544898e-12 -0.24636723)
(18.967718 5.6741991e-12 -0.31142002)
(19.510171 3.9868929e-12 -0.38280052)
(20.174444 2.7346011e-12 -0.46078365)
(20.973409 1.8596418e-12 -0.54555973)
(21.921009 1.3267768e-12 -0.63728074)
(23.032118 2.4536718e-12 -0.73610148)
(24.32255 3.6234031e-12 -0.84220392)
(25.809128 3.461041e-11 -0.95578573)
(27.509774 3.5965953e-11 -1.0770681)
(29.44344 6.5651832e-11 -1.2062222)
(31.630018 6.6444834e-11 -1.3433548)
(34.090012 6.7410627e-11 -1.4884316)
(36.844149 6.866209e-11 -1.6412259)
(39.912794 7.1146955e-11 -1.8012509)
(43.315164 7.3685444e-11 -1.9676871)
(47.068357 7.6236462e-11 -2.1393419)
(51.1861 6.7475709e-11 -2.3145617)
(55.677336 6.9988468e-11 -2.4911803)
(60.544686 7.2835893e-11 -2.6664856)
(65.78278 7.6184695e-11 -2.8371811)
(71.376769 7.9488397e-11 -2.9994546)
(77.30075 8.2687193e-11 -3.1489441)
(83.516622 8.5734306e-11 -3.2809077)
(89.974589 8.8531107e-11 -3.3908732)
(96.610647 9.1439709e-11 -3.4733503)
(103.34945 9.3932521e-11 -3.5233741)
(110.10607 1.0091535e-10 -3.5368981)
(116.78746 1.021385e-10 -3.5103097)
(123.2957 1.0748063e-10 -3.4407372)
(129.53532 1.0721321e-10 -3.3281297)
(135.41368 1.0623555e-10 -3.1728794)
(140.85094 1.0457301e-10 -2.9788695)
(145.78193 1.0602017e-10 -2.7516402)
(150.16193 1.0297712e-10 -2.4990402)
(153.96951 9.9220589e-11 -2.2307471)
(157.20738 9.5023573e-11 -1.9574228)
(159.90115 9.0467372e-11 -1.6897602)
(162.09567 8.5662691e-11 -1.4373701)
(163.84952 8.2232054e-11 -1.2077898)
(165.22838 7.6797239e-11 -1.0054719)
(166.29905 7.1955873e-11 -0.83192509)
(167.12474 6.9317794e-11 -0.68723413)
(167.75594 6.3308573e-11 -0.56939453)
(17.662638 2.5484324e-11 -0.049903713)
(17.760524 2.4716708e-11 -0.10774935)
(17.932919 2.5330047e-11 -0.16987939)
(18.178995 2.5859942e-11 -0.23810437)
(18.51038 2.2571011e-12 -0.31291028)
(18.939911 -1.8543275e-11 -0.39505088)
(19.479195 -1.4189947e-11 -0.48500359)
(20.140047 -9.7223954e-12 -0.58307118)
(20.935325 -6.0354876e-12 -0.68945095)
(21.878927 -2.8797075e-12 -0.80429662)
(22.985664 1.9600083e-11 -0.92777024)
(24.271283 1.9573432e-11 -1.0600717)
(25.752535 2.066652e-11 -1.2014237)
(27.447285 4.0730134e-11 -1.3520792)
(29.37444 4.1209392e-11 -1.5122301)
(31.553866 4.301094e-11 -1.68199)
(34.006071 4.4648309e-11 -1.8612954)
(36.751812 4.6091133e-11 -2.0498436)
(39.811529 6.5259115e-11 -2.2470081)
(43.204548 6.5503806e-11 -2.45175)
(46.948133 6.5872416e-11 -2.6625677)
(51.056224 7.472706e-11 -2.8773893)
(55.538036 7.4971129e-11 -3.0935124)
(60.396517 7.5357511e-11 -3.3075634)
(65.626669 8.4372292e-11 -3.5154561)
(71.214059 8.4685581e-11 -3.7124785)
(77.133216 8.4856044e-11 -3.8932597)
(83.346467 8.4681509e-11 -4.0519831)
(89.804441 8.4024184e-11 -4.1831748)
(96.443428 8.9925148e-11 -4.2801736)
(103.18831 8.8324972e-11 -4.3369832)
(109.95427 8.9187468e-11 -4.3487483)
(116.64814 8.6337532e-11 -4.3111825)
(123.17162 8.229407e-11 -4.2209367)
(129.42871 7.7853106e-11 -4.0780834)
(135.32587 7.3041428e-11 -3.8832703)
(140.78223 6.788641e-11 -3.6413599)
(145.73139 6.2163295e-11 -3.3592343)
(150.12734 5.6350398e-11 -3.0465681)
(153.94747 5.0546763e-11 -2.7152497)
(157.19355 4.4850539e-11 -2.3783597)
(159.89068 3.9336774e-11 -2.0490132)
(162.0837 3.4224328e-11 -1.739)
(163.83168 2.7924997e-11 -1.4575607)
(165.20123 2.2565078e-11 -1.2101505)
(166.26035 1.8773191e-11 -0.99858577)
(167.07348 1.5577732e-11 -0.82279971)
(167.69202 1.2806078e-11 -0.68015269)
(17.635347 5.1474549e-13 -0.063165154)
(17.732197 1.7243457e-11 -0.13527675)
(17.902545 3.2005147e-11 -0.21301735)
(18.145678 2.9422148e-11 -0.29827542)
(18.473508 1.2200685e-11 -0.39158018)
(18.899077 2.6050951e-11 -0.49385562)
(19.43409 3.9421114e-11 -0.60565537)
(20.090394 5.0528876e-11 -0.7272964)
(20.880832 4.7072302e-11 -0.85896534)
(21.819253 4.3855669e-11 -1.0008028)
(22.920394 2.776949e-11 -1.1529688)
(24.199916 1.2934402e-11 -1.3156772)
(25.674494 2.5586913e-11 -1.4891751)
(27.361927 2.2944684e-11 -1.6737491)
(29.281082 2.0802869e-11 -1.8696132)
(31.451816 4.5466644e-11 -2.0768869)
(33.894661 4.3139439e-11 -2.2954717)
(36.630445 4.071985e-11 -2.5249744)
(39.679724 2.6339706e-11 -2.7646052)
(43.061997 2.4779813e-11 -3.0130687)
(46.794757 2.3318615e-11 -3.268503)
(50.892238 2.1876305e-11 -3.5283508)
(55.364014 2.0478464e-11 -3.7892873)
(60.213448 1.9110108e-11 -4.0471734)
(65.436013 2.3620101e-11 -4.2970102)
(71.017778 2.2312428e-11 -4.5330476)
(76.933784 2.081382e-11 -4.7487546)
(83.146853 1.9267643e-11 -4.937084)
(89.608082 1.7480083e-11 -5.0914161)
(96.25407 1.5481187e-11 -5.2037669)
(103.00991 1.3280001e-11 -5.2669828)
(109.79084 1.0877179e-11 -5.2753083)
(116.50345 8.0730392e-12 -5.2237196)
(123.0489 2.9605295e-12 -5.1083651)
(129.33047 2.9374653e-12 -4.9294907)
(135.25344 8.5525516e-14 -4.688076)
(140.73559 -2.6909419e-12 -4.3901244)
(145.70893 -9.3515392e-12 -4.04407)
(150.12583 -1.1884767e-11 -3.6616869)
(153.96217 -1.4231699e-11 -3.2574027)
(157.21854 -1.6273317e-11 -2.8470847)
(159.9194 -1.8012402e-11 -2.4466525)
(162.10964 -1.7764076e-11 -2.0704353)
(163.84906 -2.087974e-11 -1.7296671)
(165.20556 -2.0954601e-11 -1.4309846)
(166.24876 -2.1768972e-11 -1.1765608)
(167.04481 -2.22148e-11 -0.96607872)
(167.64643 -2.2946898e-11 -0.79605327)
(17.595308 1.0997527e-11 -0.078688754)
(17.690555 -5.7781333e-13 -0.1673282)
(17.857993 -5.7841139e-13 -0.26311282)
(18.09707 -5.6079732e-13 -0.36809059)
(18.420033 -4.9626039e-13 -0.48284)
(18.840208 -3.5079344e-13 -0.60845675)
(19.369465 -2.0236538e-12 -0.74556095)
(20.019711 -2.2884469e-11 -0.89446019)
(20.803781 -2.2739339e-11 -1.0553026)
(21.735468 -2.3381409e-11 -1.2281937)
(22.829419 -1.4337221e-11 -1.4132781)
(24.101194 -6.3740819e-12 -1.6107783)
(25.56738 -1.726133e-11 -1.8209656)
(27.245711 -2.7721456e-11 -2.044164)
(29.155022 -2.8382703e-11 -2.2806134)
(31.31518 -2.9523282e-11 -2.5304413)
(33.746779 -3.0795645e-11 -2.7935115)
(36.470763 -4.0989679e-11 -3.0693305)
(39.507867 -3.2993854e-11 -3.3569238)
(42.877836 -2.5500226e-11 -3.6547063)
(46.598481 -2.6737225e-11 -3.9604068)
(50.684426 -2.8101543e-11 -4.2709157)
(55.145707 -2.9473083e-11 -4.5821993)
(59.986218 -3.0786937e-11 -4.8892455)
(65.202007 -3.2031717e-11 -5.1860141)
(70.779754 -3.3208315e-11 -5.4655699)
(76.695098 -3.4319248e-11 -5.7200585)
(82.911421 -3.1234106e-11 -5.9410318)
(89.380332 -3.2132964e-11 -6.1205643)
(96.038731 -3.2933844e-11 -6.249184)
(102.8119 -3.3660174e-11 -6.3184397)
(109.61501 -3.4255426e-11 -6.3215696)
(116.3543 -3.8431213e-11 -6.2527384)
(122.93019 -3.4845893e-11 -6.1075601)
(129.24494 -3.462909e-11 -5.886496)
(135.20231 -3.446698e-11 -5.5909342)
(140.71839 -3.5576357e-11 -5.2281797)
(145.72317 -3.6786444e-11 -4.8084357)
(150.16695 -3.6065917e-11 -4.3458652)
(154.02372 -3.6655117e-11 -3.8577919)
(157.29262 -3.5411838e-11 -3.3632818)
(159.99735 -3.4073622e-11 -2.8815025)
(162.18289 -3.2678345e-11 -2.4297536)
(163.91009 -3.1235375e-11 -2.0216208)
(165.24858 -3.142429e-11 -1.6651556)
(166.27024 -2.9838688e-11 -1.362964)
(167.04347 -2.7858584e-11 -1.1143451)
(167.62287 -2.684123e-11 -0.91469315)
(17.538297 -1.5932193e-11 -0.096248229)
(17.631208 1.0996596e-12 -0.20357613)
(17.794589 5.1022877e-13 -0.31973037)
(18.028135 3.4069035e-13 -0.44702221)
(18.344504 3.9202799e-13 -0.58611198)
(18.757413 1.2240911e-12 -0.73826525)
(19.278985 -2.7085925e-11 -0.90414427)
(19.921232 -1.1392209e-11 -1.0840067)
(20.696992 -1.1043711e-11 -1.2779198)
(21.619988 -2.5359474e-11 -1.4859227)
(22.704757 -2.5979357e-11 -1.7081285)
(23.966742 -3.9813278e-11 -1.9447637)
(25.42243 -2.5788443e-11 -2.1961276)
(27.089491 -2.6052648e-11 -2.4625893)
(28.986739 -2.6159628e-11 -2.7444247)
(31.134083 -3.2846428e-11 -3.0417783)
(33.552224 -3.2890637e-11 -3.3544798)
(36.262284 -3.30755e-11 -3.6819313)
(39.285255 -3.3423571e-11 -4.0229591)
(42.641218 -3.3879858e-11 -4.3756593)
(46.34841 -2.7609269e-11 -4.7373067)
(50.421961 -2.8227786e-11 -5.1041751)
(54.872496 -2.8739935e-11 -5.4714365)
(59.704569 -2.9183897e-11 -5.8330959)
(64.914933 -2.9444485e-11 -6.1819395)
(70.490992 -2.949821e-11 -6.5096931)
(76.409084 -2.9406396e-11 -6.8070047)
(82.633217 -2.9287908e-11 -7.06384)
(89.115538 -2.9011796e-11 -7.2707886)
(95.793237 -2.8577846e-11 -7.4167114)
(102.59171 -2.7884835e-11 -7.4917016)
(109.42597 -2.700364e-11 -7.4878707)
(116.2017 -2.6052524e-11 -7.3984855)
(122.8183 -2.2228387e-11 -7.218588)
(129.17671 -2.4006491e-11 -6.9488916)
(135.17877 -2.4384342e-11 -6.5912625)
(140.73842 -2.3253275e-11 -6.1544624)
(145.78315 -2.2012609e-11 -5.6506777)
(150.26069 -2.2040671e-11 -5.0967543)
(154.1427 -2.0675806e-11 -4.5132906)
(157.42651 -1.8048501e-11 -3.9230063)
(160.1349 -1.7185347e-11 -3.3488287)
(162.31306 -1.625412e-11 -2.811546)
(164.02321 -1.5294673e-11 -2.3275431)
(165.33739 -1.4427628e-11 -1.9065897)
(166.33044 -1.3690139e-11 -1.5518284)
(167.07379 -1.4173607e-11 -1.2619954)
(167.62461 -1.3593069e-11 -1.0310031)
(17.459921 -3.167772e-13 -0.11560459)
(17.549583 -7.3391779e-13 -0.24336128)
(17.707443 -6.8579562e-13 -0.38179897)
(17.933575 -9.3579064e-14 -0.53361445)
(18.241153 8.6564714e-13 -0.69961707)
(18.644442 1.2679445e-11 -0.88123225)
(19.155933 1.2777414e-11 -1.079119)
(19.787801 1.6842176e-12 -1.2934187)
(20.552897 1.3783608e-12 -1.5240541)
(21.464854 -9.7136325e-12 -1.7709554)
(22.538071 -1.9529891e-11 -2.0341849)
(23.787851 -1.8788592e-11 -2.3139721)
(25.230568 -7.1602594e-12 -2.6106529)
(26.883828 -6.7413533e-12 -2.9246579)
(28.766447 -6.258387e-12 -3.2563171)
(30.898411 -5.7922753e-12 -3.6058103)
(33.300582 -5.3690665e-12 -3.9729467)
(35.994339 -4.993197e-12 -4.3570299)
(39.00102 -4.6645545e-12 -4.7566824)
(42.341157 -4.4970305e-12 -5.1696626)
(46.03353 -4.3606537e-12 -5.592756)
(50.093917 -4.2552909e-12 -6.0215645)
(54.533677 -4.1717185e-12 -6.4503877)
(59.358172 -4.1954649e-12 -6.8721399)
(64.565005 6.4392517e-13 -7.2783003)
(70.142436 5.895065e-12 -7.6590988)
(76.067604 8.8254692e-12 -8.0035116)
(82.305212 6.5933717e-12 -8.2997304)
(88.807965 6.4070207e-12 -8.5366697)
(95.513305 6.3623155e-12 -8.701333)
(102.34666 8.6715878e-12 -8.7821683)
(109.22273 8.2174532e-12 -8.7700011)
(116.04642 5.4869374e-12 -8.6570723)
(122.71578 2.9887216e-12 -8.4377857)
(129.13005 2.4337977e-12 -8.1131208)
(135.18873 -5.0757481e-13 -7.685481)
(140.80306 -1.1943826e-12 -7.1652311)
(145.89748 -1.8857696e-12 -6.5667507)
(150.41661 -2.5901033e-12 -5.9098678)
(154.32922 -3.1958505e-12 -5.2188514)
(157.63043 -3.7453638e-12 -4.5205728)
(160.34191 -4.288478e-12 -3.8423046)
(162.50913 -4.7501227e-12 -3.208948)
(164.19617 -4.1511193e-12 -2.6402516)
(165.47819 -4.5390596e-12 -2.1481056)
(166.43402 -4.7605187e-12 -1.7363364)
(167.13906 -4.8622164e-12 -1.4028795)
(167.6539 -4.8794007e-12 -1.139682)
(17.356451 -9.2096522e-12 -0.13588532)
(17.441765 -9.1044285e-12 -0.28510318)
(17.592302 -7.1126992e-14 -0.44704458)
(17.808699 7.8220608e-12 -0.62493133)
(18.104809 1.4771349e-11 -0.81982741)
(18.495647 1.2879157e-11 -1.0332997)
(18.994223 1.1248117e-11 -1.2659249)
(19.612951 1.0450913e-12 -1.5176252)
(20.364694 1.4168296e-14 -1.7880899)
(21.26296 -9.1799001e-13 -2.0770871)
(22.321966 6.7838871e-12 -2.3846103)
(23.556841 1.4755058e-11 -2.7108961)
(24.983834 1.4356192e-11 -3.0563353)
(26.62049 1.4042488e-11 -3.4214467)
(28.485647 1.3523831e-11 -3.8066455)
(30.599411 1.3031368e-11 -4.2121778)
(32.982871 1.2594831e-11 -4.6378593)
(35.657747 1.2227576e-11 -5.0829152)
(38.645832 1.1930223e-11 -5.545774)
(41.968228 7.3569531e-12 -6.0238526)
(45.644402 7.2027167e-12 -6.5134258)
(49.690929 6.9127123e-12 -7.0093825)
(54.120066 6.6261413e-12 -7.5050937)
(58.938149 2.2391978e-12 -7.9922976)
(64.143793 1.870381e-12 -8.4610383)
(69.726257 1.3952649e-12 -8.8998631)
(75.663593 8.2713859e-13 -9.2958623)
(81.921268 -1.6520743e-12 -9.6352437)
(88.452554 -4.3674915e-13 -9.9050527)
(95.195098 -1.0749093e-12 -10.090282)
(102.07426 -3.8032186e-12 -10.17758)
(109.00426 -4.6925266e-12 -10.156358)
(115.88891 -5.6460878e-12 -10.017668)
(122.6246 -6.6406936e-12 -9.7551592)
(129.10845 -7.6325867e-12 -9.370004)
(135.23707 -1.0389707e-11 -8.8651274)
(140.91849 -1.1055068e-11 -8.2525758)
(146.07344 -1.0722774e-11 -7.5490883)
(150.64282 -1.102791e-11 -6.7777542)
(154.59191 -1.0283514e-11 -5.9669168)
(157.91314 -1.0061493e-11 -5.1481356)
(160.62677 -1.03287e-11 -4.3537002)
(162.77865 -9.7470388e-12 -3.6133833)
(164.43519 -8.829843e-12 -2.9510236)
(165.67566 -8.4892464e-12 -2.3811849)
(166.58406 -7.4171208e-12 -1.9085975)
(167.24101 -6.3147074e-12 -1.530079)
(167.71155 -5.2593653e-12 -1.2349569)
(17.225919 1.7113111e-13 -0.15610986)
(17.305606 -6.5070728e-12 -0.32674036)
(17.446698 -5.9073918e-12 -0.51235293)
(17.650626 -1.2122297e-11 -0.7168622)
(17.93214 -1.827394e-11 -0.94173775)
(18.307285 -2.3733467e-11 -1.1886559)
(18.78979 -2.2834664e-11 -1.457978)
(19.39238 -2.9100626e-11 -1.7492458)
(20.127914 -2.1751012e-11 -2.0617919)
(21.009704 -2.1347993e-11 -2.3951638)
(22.051722 -1.4134198e-11 -2.7492759)
(23.268882 -1.3653488e-11 -3.1243873)
(24.677283 -1.3082905e-11 -3.5209737)
(26.294412 -1.2595801e-11 -3.9396822)
(28.139152 -1.8981173e-11 -4.3810583)
(30.231774 -1.8846728e-11 -4.8454609)
(32.593666 -1.8664932e-11 -5.3327552)
(35.246978 -1.8520081e-11 -5.8421245)
(38.214073 -1.8439861e-11 -6.371831)
(41.516752 -1.8442759e-11 -6.9189648)
(45.17532 -1.8490565e-11 -7.4792959)
(49.207303 -2.2343444e-11 -8.0469621)
(53.626039 -2.2713525e-11 -8.6143229)
(58.439019 -2.6556195e-11 -9.1718821)
(63.646039 -2.7018593e-11 -9.7082715)
(69.237518 -2.7506731e-11 -10.210296)
(75.192537 -3.1498816e-11 -10.662973)
(81.477395 -2.8433085e-11 -11.050237)
(88.045932 -2.8824928e-11 -11.35686)
(94.83595 -3.0460374e-11 -11.565421)
(101.77264 -3.0268054e-11 -11.660459)
(108.76953 -2.9663994e-11 -11.629929)
(115.72909 -2.8711041e-11 -11.463673)
(122.54563 -2.7390635e-11 -11.154618)
(129.11373 -2.5623029e-11 -10.70413)
(135.32658 -2.3570116e-11 -10.115621)
(141.08839 -1.9692472e-11 -9.4028245)
(146.31559 -1.6923856e-11 -8.5848947)
(150.94458 -1.4000971e-11 -7.6883612)
(154.93653 -1.0897673e-11 -6.7459711)
(158.28057 -7.6808958e-12 -5.7944865)
(160.99517 -4.4599436e-12 -4.8719379)
(163.12656 -1.2578794e-12 -4.0138651)
(164.74401 2.5618579e-12 -3.2491255)
(165.93201 5.2826347e-12 -2.5957074)
(166.78127 7.6045968e-12 -2.0595565)
(167.37915 8.8557393e-12 -1.6359541)
(167.7964 1.053462e-11 -1.3107236)
(17.069327 6.1745445e-12 -0.17485064)
(17.141942 6.082569e-12 -0.36549104)
(17.271169 6.0399649e-12 -0.57364295)