# y+ ()       
# Time        	patch         	min           	max           	average       
1             	wall	1.723251e-01	1.035019e+00	9.060947e-01
