/*--------------------------------*- C++ -*----------------------------------*\
| =========                 |                                                 |
| \\      /  F ield         | OpenFOAM: The Open Source CFD Toolbox           |
|  \\    /   O peration     | Version:  2212                                  |
|   \\  /    A nd           | Website:  www.openfoam.com                      |
|    \\/     M anipulation  |                                                 |
\*---------------------------------------------------------------------------*/
FoamFile
{
    version     2.0;
    format      ascii;
    arch        "LSB;label=32;scalar=64";
    class       volVectorField;
    location    "0";
    object      C;
}
// * * * * * * * * * * * * * * * * * * * * * * * * * * * * * * * * * * * * * //

dimensions      [0 1 0 0 0 0 0];

internalField   nonuniform List<vector> 
3584
(
(414.63042 -0.5 -389.23981)
(272.66895 -0.5 -389.32026)
(414.47595 -0.5 -224.67676)
(184.25476 -0.5 -388.43747)
(271.44502 -0.5 -224.79539)
(414.44269 -0.5 -129.69836)
(134.9997 -0.5 -389.38639)
(178.59141 -0.5 -224.91016)
(271.31731 -0.5 -129.75687)
(414.43366 -0.5 -74.874379)
(111.51454 -0.5 -394.43824)
(121.2312 -0.5 -224.28428)
(177.79848 -0.5 -129.84872)
(271.28562 -0.5 -74.904772)
(414.43124 -0.5 -43.226044)
(100.74011 -0.5 -400.80717)
(90.466055 -0.5 -224.95254)
(117.11539 -0.5 -129.97081)
(177.71516 -0.5 -74.951567)
(271.27659 -0.5 -43.242198)
(414.4307 -0.5 -24.955454)
(94.299198 -0.5 -405.50954)
(77.20563 -0.5 -228.93707)
(80.033487 -0.5 -129.51298)
(116.57928 -0.5 -75.023947)
(177.69291 -0.5 -43.266987)
(271.27405 -0.5 -24.964165)
(414.4307 -0.5 -14.407536)
(88.828703 -0.5 -407.57038)
(71.739101 -0.5 -233.48834)
(61.104226 -0.5 -130.04268)
(76.933597 -0.5 -75.142081)
(116.52238 -0.5 -43.304903)
(177.68639 -0.5 -24.977511)
(271.27343 -0.5 -14.412276)
(414.43084 -0.5 -8.3179494)
(83.454441 -0.5 -408.37992)
(68.189021 -0.5 -236.0186)
(53.996563 -0.5 -133.33139)
(53.053799 -0.5 -74.797072)
(76.557261 -0.5 -43.363452)
(116.50637 -0.5 -24.997928)
(177.68453 -0.5 -14.419532)
(271.27338 -0.5 -8.320541)
(414.43102 -0.5 -4.8022418)
(78.002462 -0.5 -408.86252)
(64.84966 -0.5 -236.95354)
(51.303764 -0.5 -136.36548)
(41.587995 -0.5 -75.284714)
(50.665287 -0.5 -43.472707)
(76.517129 -0.5 -25.029174)
(116.50161 -0.5 -14.430633)
(177.68409 -0.5 -8.3245072)
(271.27349 -0.5 -4.8036619)
(414.43119 -0.5 -2.7725043)
(72.437083 -0.5 -409.25037)
(61.468615 -0.5 -237.44955)
(49.186943 -0.5 -137.56938)
(38.028066 -0.5 -78.014667)
(35.34626 -0.5 -43.207508)
(50.392186 -0.5 -25.077341)
(76.505446 -0.5 -14.447618)
(116.50025 -0.5 -8.3305747)
(177.68408 -0.5 -4.8058351)
(271.27364 -0.5 -2.7732828)
(414.43136 -0.5 -1.6006646)
(66.747708 -0.5 -409.57429)
(58.012658 -0.5 -237.85634)
(47.04688 -0.5 -138.07603)
(36.631877 -0.5 -79.770557)
(28.510289 -0.5 -43.715533)
(33.489815 -0.5 -25.175845)
(50.363268 -0.5 -14.47362)
(76.501945 -0.5 -8.3398572)
(116.49995 -0.5 -4.8091595)
(177.68419 -0.5 -2.7744742)
(271.2738 -0.5 -1.601091)
(414.43153 -0.5 -0.9241187)
(60.927023 -0.5 -409.83348)
(54.473874 -0.5 -238.22364)
(44.854928 -0.5 -138.46397)
(35.266995 -0.5 -80.351749)
(26.869318 -0.5 -45.847939)
(23.690951 -0.5 -24.974242)
(33.285957 -0.5 -14.513645)
(50.354672 -0.5 -8.3540616)
(76.500968 -0.5 -4.8142451)
(116.49998 -0.5 -2.7762967)
(177.68434 -0.5 -1.6017437)
(271.27397 -0.5 -0.92435196)
(414.43168 -0.5 -0.53352367)
(54.967525 -0.5 -410.02369)
(50.847397 -0.5 -238.55365)
(42.607472 -0.5 -138.82309)
(33.854404 -0.5 -80.710664)
(26.03311 -0.5 -46.731462)
(19.682567 -0.5 -25.520108)
(22.257079 -0.5 -14.600774)
(33.264839 -0.5 -8.3758104)
(50.352103 -0.5 -4.8220255)
(76.500778 -0.5 -2.7790844)
(116.5001 -0.5 -1.6027421)
(177.6845 -0.5 -0.92470896)
(271.27413 -0.5 -0.53365098)
(414.43184 -0.5 -0.30801854)
(48.861098 -0.5 -410.13998)
(47.128368 -0.5 -238.84382)
(40.301485 -0.5 -139.16)
(32.403417 -0.5 -81.039011)
(25.118027 -0.5 -47.079342)
(18.973137 -0.5 -27.005538)
(15.993421 -0.5 -14.456756)
(22.102027 -0.5 -8.4092505)
(33.258494 -0.5 -4.8339315)
(50.35141 -0.5 -2.7833491)
(76.500831 -0.5 -1.6042693)
(116.50025 -0.5 -0.92525505)
(177.68466 -0.5 -0.53384583)
(271.27428 -0.5 -0.30808783)
(414.432 -0.5 -0.17782592)
(42.598918 -0.5 -410.17683)
(43.311567 -0.5 -239.09099)
(37.933858 -0.5 -139.47334)
(30.913196 -0.5 -81.353259)
(24.170727 -0.5 -47.369475)
(18.408634 -0.5 -27.447787)
(13.681788 -0.5 -15.004544)
(14.907663 -0.5 -8.4846732)
(22.086486 -0.5 -4.852162)
(33.256618 -0.5 -2.7898737)
(50.351303 -0.5 -1.6066054)
(76.500957 -0.5 -0.92609038)
(116.5004 -0.5 -0.53414387)
(177.68482 -0.5 -0.30819389)
(271.27444 -0.5 -0.17786351)
(414.43215 -0.5 -0.10266079)
(36.171381 -0.5 -410.12809)
(39.391344 -0.5 -239.29163)
(35.501268 -0.5 -139.76106)
(29.381812 -0.5 -81.653179)
(23.196659 -0.5 -47.648724)
(17.787939 -0.5 -27.703806)
(13.363603 -0.5 -15.929536)
(10.891365 -0.5 -8.393024)
(14.789938 -0.5 -4.8801614)
(22.081806 -0.5 -2.7998577)
(33.256138 -0.5 -1.6101792)
(50.35138 -0.5 -0.92736815)
(76.501106 -0.5 -0.53459979)
(116.50056 -0.5 -0.30835613)
(177.68497 -0.5 -0.17792106)
(271.27459 -0.5 -0.10268111)
(414.43231 -0.5 -0.059265117)
(29.568025 -0.5 -409.98682)
(35.361592 -0.5 -239.44176)
(33.00014 -0.5 -140.02083)
(27.807168 -0.5 -81.937426)
(22.194916 -0.5 -47.918984)
(17.147055 -0.5 -27.944511)
(12.970174 -0.5 -16.189834)
(9.5682858 -0.5 -8.8797945)
(10.094472 -0.5 -4.9435764)
(14.778466 -0.5 -2.8151446)
(22.080447 -0.5 -1.6156468)
(33.256096 -0.5 -0.92932281)
(50.351512 -0.5 -0.53529719)
(76.501259 -0.5 -0.30860429)
(116.50071 -0.5 -0.17800908)
(177.68513 -0.5 -0.10271221)
(271.27475 -0.5 -0.059276047)
(414.43246 -0.5 -0.034211144)
(22.777441 -0.5 -409.74523)
(31.215694 -0.5 -239.53693)
(30.426636 -0.5 -140.25005)
(26.187019 -0.5 -82.204448)
(21.164185 -0.5 -48.179402)
(16.48732 -0.5 -28.179174)
(12.548032 -0.5 -16.393742)
(9.3973288 -0.5 -9.4217457)
(7.4973577 -0.5 -4.891697)
(10.009233 -0.5 -2.8386006)
(14.77502 -0.5 -1.6240136)
(22.080126 -0.5 -0.93231311)
(33.256191 -0.5 -0.53636403)
(50.35166 -0.5 -0.30898391)
(76.501414 -0.5 -0.17814373)
(116.50087 -0.5 -0.10275979)
(177.68528 -0.5 -0.059292781)
(271.2749 -0.5 -0.034216994)
(414.43262 -0.5 -0.019746533)
(15.787188 -0.5 -409.39455)
(26.946489 -0.5 -239.57213)
(27.776628 -0.5 -140.44582)
(24.518973 -0.5 -82.452506)
(20.103059 -0.5 -48.428908)
(15.807964 -0.5 -28.40748)
(12.112432 -0.5 -16.592062)
(9.1243786 -0.5 -9.6023007)
(6.7207018 -0.5 -5.269738)
(6.9386039 -0.5 -2.8893327)
(10.000743 -0.5 -1.6368243)
(14.774045 -0.5 -0.93688815)
(22.080133 -0.5 -0.53799604)
(33.256326 -0.5 -0.30956461)
(50.351811 -0.5 -0.17834969)
(76.501567 -0.5 -0.10283256)
(116.50102 -0.5 -0.059318377)
(177.68543 -0.5 -0.03422595)
(271.27506 -0.5 -0.019749645)
(414.43277 -0.5 -0.011395562)
(8.5836902 -0.5 -408.92481)
(22.546225 -0.5 -239.54169)
(25.045683 -0.5 -140.60484)
(22.800477 -0.5 -82.679647)
(19.010052 -0.5 -48.666317)
(15.108102 -0.5 -28.628684)
(11.663347 -0.5 -16.7861)
(8.836881 -0.5 -9.7663728)
(6.6079909 -0.5 -5.5929261)
(5.2379161 -0.5 -2.8659206)
(6.8835551 -0.5 -1.6564763)
(9.9982107 -0.5 -0.9438893)
(14.773844 -0.5 -0.54049279)
(22.08024 -0.5 -0.31045294)
(33.256474 -0.5 -0.17866475)
(50.351965 -0.5 -0.10294387)
(76.501721 -0.5 -0.059357531)
(116.50118 -0.5 -0.034239651)
(177.68559 -0.5 -0.01975441)
(271.27521 -0.5 -0.011397206)
(414.43292 -0.5 -0.0065742294)
(1.1521405 -0.5 -408.32471)
(18.006512 -0.5 -239.4392)
(22.229041 -0.5 -140.72341)
(21.028813 -0.5 -82.883677)
(17.88359 -0.5 -48.890292)
(14.386801 -0.5 -28.841949)
(11.200212 -0.5 -16.975374)
(8.539844 -0.5 -9.9273665)
(6.4201431 -0.5 -5.731442)
(4.7412675 -0.5 -3.1256181)
(4.8709336 -0.5 -1.6953141)
(6.8772504 -0.5 -0.95460976)
(9.9975204 -0.5 -0.54431291)
(14.773885 -0.5 -0.31181194)
(22.080378 -0.5 -0.17914672)
(33.256625 -0.5 -0.10311415)
(50.352118 -0.5 -0.059417424)
(76.501874 -0.5 -0.034260609)
(116.50133 -0.5 -0.019761699)
(177.68574 -0.5 -0.011399723)
(271.27536 -0.5 -0.0065750901)
(414.43308 -0.5 -0.0037906903)
(-6.5236012 -0.5 -407.58136)
(13.318282 -0.5 -239.25738)
(19.321598 -0.5 -140.79733)
(19.201087 -0.5 -83.06212)
(16.722008 -0.5 -49.099324)
(13.643082 -0.5 -29.046336)
(10.72242 -0.5 -17.159297)
(8.2329811 -0.5 -10.085248)
(6.223713 -0.5 -5.8641177)
(4.6563482 -0.5 -3.3393131)
(3.7485927 -0.5 -1.6979181)
(4.8399467 -0.5 -0.97105704)
(6.8753934 -0.5 -0.55015928)
(9.9974064 -0.5 -0.31389111)
(14.774001 -0.5 -0.17988404)
(22.080525 -0.5 -0.10337464)
(33.256777 -0.5 -0.059509043)
(50.35227 -0.5 -0.034292667)
(76.502027 -0.5 -0.019772849)
(116.50148 -0.5 -0.011403573)
(177.68589 -0.5 -0.0065764085)
(271.27552 -0.5 -0.0037911364)
(414.43323 -0.5 -0.0021836471)
(-14.461107 -0.5 -406.68003)
(8.471745 -0.5 -238.98794)
(16.317887 -0.5 -140.82185)
(17.314226 -0.5 -83.212187)
(15.523555 -0.5 -49.291742)
(12.875915 -0.5 -29.240807)
(10.229339 -0.5 -17.337228)
(7.9158711 -0.5 -10.239634)
(6.0202354 -0.5 -5.9946788)
(4.5250513 -0.5 -3.45127)
(3.4051004 -0.5 -1.8693172)
(3.5225583 -0.5 -1.0009874)
(4.8352491 -0.5 -0.55911257)
(6.874913 -0.5 -0.31707254)
(9.9974727 -0.5 -0.18101205)
(14.774141 -0.5 -0.10377312)
(22.080676 -0.5 -0.059649193)
(33.256929 -0.5 -0.034341706)
(50.352423 -0.5 -0.019789905)
(76.50218 -0.5 -0.011409463)
(116.50164 -0.5 -0.0065784251)
(177.68605 -0.5 -0.0037918197)
(271.27567 -0.5 -0.0021838754)
(414.43338 -0.5 -0.0012558399)
(-22.67947 -0.5 -405.60384)
(3.4563541 -0.5 -238.62143)
(13.212071 -0.5 -140.79157)
(15.36497 -0.5 -83.33072)
(14.28638 -0.5 -49.465647)
(12.084218 -0.5 -29.424193)
(9.7203037 -0.5 -17.508455)
(7.5880716 -0.5 -10.390094)
(5.8094028 -0.5 -6.1229489)
(4.3886144 -0.5 -3.5602883)
(3.321383 -0.5 -2.0134795)
(2.7852281 -0.5 -1.0219843)
(3.5038185 -0.5 -0.57285282)
(4.8338903 -0.5 -0.32194199)
(6.8748627 -0.5 -0.18273796)
(9.9975958 -0.5 -0.10438275)
(14.774289 -0.5 -0.059863593)
(22.080827 -0.5 -0.034416723)
(33.257082 -0.5 -0.019815994)
(50.352576 -0.5 -0.011418472)
(76.502333 -0.5 -0.0065815097)
(116.50179 -0.5 -0.0037928651)
(177.6862 -0.5 -0.0021842251)
(271.27582 -0.5 -0.0012559548)
(414.43353 -0.5 -0.00072018136)
(-1.7392195 -0.5 -238.147)
(-31.199373 -0.5 -404.33334)
(9.9979246 -0.5 -140.70034)
(13.349872 -0.5 -83.414159)
(13.008542 -0.5 -49.618911)
(11.266862 -0.5 -29.5952)
(9.1946173 -0.5 -17.672194)
(7.2491185 -0.5 -10.536152)
(5.5908765 -0.5 -6.2486617)
(4.2473566 -0.5 -3.6675844)
(3.2192948 -0.5 -2.1061436)
(2.5566885 -0.5 -1.1489512)
(2.6444226 -0.5 -0.59743439)
(3.5003029 -0.5 -0.32940065)
(4.8335635 -0.5 -0.18537913)
(6.8749472 -0.5 -0.10531549)
(9.9977367 -0.5 -0.060191594)
(14.774438 -0.5 -0.03453148)
(22.080979 -0.5 -0.019855904)
(33.257234 -0.5 -0.011432254)
(50.352728 -0.5 -0.0065862282)
(76.502485 -0.5 -0.003794464)
(116.50194 -0.5 -0.0021847601)
(177.68635 -0.5 -0.001256131)
(271.27597 -0.5 -0.00072023808)
(414.43369 -0.5 -0.0004109253)
(6.6688409 -0.5 -140.54116)
(-7.1271026 -0.5 -237.55229)
(-40.043142 -0.5 -402.8462)
(11.265297 -0.5 -83.458453)
(11.688002 -0.5 -49.749145)
(10.422662 -0.5 -29.752385)
(8.651552 -0.5 -17.827576)
(6.8985275 -0.5 -10.677275)
(5.3643141 -0.5 -6.3715165)
(4.1008742 -0.5 -3.7729811)
(3.1162293 -0.5 -2.1975215)
(2.4732722 -0.5 -1.2455669)
(2.1684634 -0.5 -0.62271156)
(2.630267 -0.5 -0.34085262)
(3.4993099 -0.5 -0.1894223)
(4.833559 -0.5 -0.10674276)
(6.8750741 -0.5 -0.060693426)
(9.997883 -0.5 -0.034707041)
(14.774589 -0.5 -0.019916957)
(22.08113 -0.5 -0.011453335)
(33.257386 -0.5 -0.0065934461)
(50.352881 -0.5 -0.0037969098)
(76.502638 -0.5 -0.0021855784)
(116.50209 -0.5 -0.0012564004)
(177.6865 -0.5 -0.00072032498)
(271.27613 -0.5 -0.00041095253)
(414.43384 -0.5 -0.00023238)
(9.1074284 -0.5 -83.459023)
(3.2178349 -0.5 -140.30606)
(-12.720203 -0.5 -236.82304)
(-49.23473 -0.5 -401.11655)
(10.322632 -0.5 -49.85365)
(9.5503843 -0.5 -29.894131)
(8.0903478 -0.5 -17.973636)
(6.5357961 -0.5 -10.812877)
(5.1293696 -0.5 -6.4911693)
(3.9487949 -0.5 -3.8762788)
(3.0121545 -0.5 -2.2875642)
(2.3824349 -0.5 -1.3187233)
(2.0236206 -0.5 -0.7181206)
(2.0708516 -0.5 -0.36128851)
(2.6276185 -0.5 -0.195617)
(3.4990947 -0.5 -0.10892722)
(4.8336554 -0.5 -0.061461298)
(6.8752143 -0.5 -0.03497564)
(9.998031 -0.5 -0.020010357)
(14.774739 -0.5 -0.011485585)
(22.081282 -0.5 -0.0066044872)
(33.257538 -0.5 -0.0038006512)
(50.353033 -0.5 -0.0021868302)
(76.502791 -0.5 -0.0012568126)
(116.50225 -0.5 -0.00072045792)
(177.68666 -0.5 -0.00041099425)
(271.27628 -0.5 -0.00023239258)
(414.43399 -0.5 -0.00012929899)
(8.9102147 -0.5 -49.929399)
(6.8722777 -0.5 -83.410668)
(-0.36243324 -0.5 -139.98589)
(-18.532181 -0.5 -235.94289)
(-58.79966 -0.5 -399.11454)
(8.6487447 -0.5 -30.018644)
(7.5102143 -0.5 -18.109304)
(6.1604045 -0.5 -10.942302)
(4.8856954 -0.5 -6.6072255)
(3.7907879 -0.5 -3.9772447)
(2.9063834 -0.5 -2.375606)
(2.2902622 -0.5 -1.3893654)
(1.9526178 -0.5 -0.78715901)
(1.7668203 -0.5 -0.38621794)
(2.0591722 -0.5 -0.20513467)
(2.6268924 -0.5 -0.11227194)
(3.4991218 -0.5 -0.062636446)
(4.8337835 -0.5 -0.035386624)
(6.8753589 -0.5 -0.020153252)
(9.9981798 -0.5 -0.01153492)
(14.77489 -0.5 -0.0066213773)
(22.081433 -0.5 -0.0038063744)
(33.25769 -0.5 -0.002188745)
(50.353185 -0.5 -0.001257443)
(76.502943 -0.5 -0.00072066126)
(116.5024 -0.5 -0.00041105805)
(177.68681 -0.5 -0.00023241186)
(271.27643 -0.5 -0.0001293045)
(414.43414 -0.5 -6.9786393e-05)
(7.7164146 -0.5 -30.123911)
(7.4484576 -0.5 -49.972978)
(4.5557055 -0.5 -83.307491)
(-4.0796161 -0.5 -139.57025)
(-24.577351 -0.5 -234.89304)
(-68.764849 -0.5 -396.80561)
(6.9103342 -0.5 -18.233386)
(5.7718212 -0.5 -11.064819)
(4.6329452 -0.5 -6.7192299)
(3.6265625 -0.5 -4.0755921)
(2.7980491 -0.5 -2.4610415)
(2.19786 -0.5 -1.4578994)
(1.8756536 -0.5 -0.84603277)
(1.6741579 -0.5 -0.45517664)
(1.6958081 -0.5 -0.22197551)
(2.057157 -0.5 -0.1173983)
(2.6267565 -0.5 -0.064435358)
(3.4992247 -0.5 -0.036015564)
(4.8339218 -0.5 -0.020371892)
(6.8755048 -0.5 -0.011610399)
(9.9983288 -0.5 -0.0066472157)
(14.77504 -0.5 -0.0038151293)
(22.081585 -0.5 -0.002191674)
(33.257842 -0.5 -0.0012584074)
(50.353338 -0.5 -0.0007209723)
(76.503095 -0.5 -0.00041115566)
(116.50255 -0.5 -0.00023244135)
(177.68696 -0.5 -0.00012931293)
(271.27658 -0.5 -6.9788608e-05)
(414.43429 -0.5 -3.5427502e-05)
(6.2898693 -0.5 -18.344553)
(6.7520302 -0.5 -30.207691)
(5.9350041 -0.5 -49.980542)
(2.1534542 -0.5 -83.142794)
(-7.94161 -0.5 -139.0472)
(-30.870547 -0.5 -233.65183)
(-79.158294 -0.5 -394.14974)
(5.3695087 -0.5 -11.179613)
(4.3707799 -0.5 -6.8266553)
(3.4558656 -0.5 -4.1709623)
(2.6863659 -0.5 -2.543452)
(2.1063822 -0.5 -1.5247999)
(1.7948631 -0.5 -0.9017017)
(1.6184583 -0.5 -0.50579977)
(1.5026061 -0.5 -0.24503292)
(1.6858439 -0.5 -0.12528171)
(2.0566236 -0.5 -0.067190454)
(2.6268038 -0.5 -0.036978251)
(3.4993517 -0.5 -0.020706471)
(4.8340637 -0.5 -0.011725885)
(6.8756516 -0.5 -0.0066867454)
(9.998478 -0.5 -0.0038285224)
(14.775191 -0.5 -0.0021961547)
(22.081736 -0.5 -0.0012598826)
(33.257994 -0.5 -0.00072144809)
(50.35349 -0.5 -0.00041130496)
(76.503248 -0.5 -0.00023248646)
(116.5027 -0.5 -0.00012932583)
(177.68711 -0.5 -6.9792e-05)
(271.27674 -0.5 -3.5428274e-05)
(414.43444 -0.5 -1.5590804e-05)
(4.9529337 -0.5 -11.285768)
(5.6479712 -0.5 -18.44132)
(5.754204 -0.5 -30.267471)
(4.3674601 -0.5 -49.947763)
(-0.33880293 -0.5 -82.908987)
(-11.956449 -0.5 -138.40316)
(-37.426884 -0.5 -232.19442)
(-90.008591 -0.5 -391.10074)
(4.0988748 -0.5 -6.9288911)
(3.2784829 -0.5 -4.2629187)
(2.5707582 -0.5 -2.6225856)
(2.0168737 -0.5 -1.5904251)
(1.7113897 -0.5 -0.95359471)
(1.5580247 -0.5 -0.55140334)
(1.4406584 -0.5 -0.29428208)
(1.4502809 -0.5 -0.13903539)
(1.6842882 -0.5 -0.07141491)
(2.056542 -0.5 -0.038452262)
(2.6269085 -0.5 -0.021218567)
(3.4994866 -0.5 -0.011902604)
(4.834207 -0.5 -0.0067472263)
(6.8757988 -0.5 -0.003849012)
(9.9986275 -0.5 -0.002203009)
(14.775342 -0.5 -0.0012621393)
(22.081888 -0.5 -0.0007221759)
(33.258146 -0.5 -0.00041153334)
(50.353642 -0.5 -0.00023255546)
(76.5034 -0.5 -0.00012934557)
(116.50286 -0.5 -6.9797188e-05)
(177.68727 -0.5 -3.5429457e-05)
(271.27689 -0.5 -1.5591008e-05)
(414.4346 -0.5 -4.1383217e-06)
(3.8169313 -0.5 -7.0252331)
(4.5215799 -0.5 -11.382253)
(4.9837967 -0.5 -18.522025)
(4.7215471 -0.5 -30.300442)
(2.7434298 -0.5 -49.869767)
(-2.9253872 -0.5 -82.597452)
(-16.132144 -0.5 -137.62259)
(-44.261412 -0.5 -230.49224)
(-101.34412 -0.5 -387.60526)
(3.0942418 -0.5 -4.3509458)
(2.45086 -0.5 -2.6982561)
(1.9296542 -0.5 -1.6545445)
(1.6268256 -0.5 -1.0012973)
(1.4934297 -0.5 -0.59393603)
(1.3969692 -0.5 -0.33211296)
(1.327843 -0.5 -0.15933468)
(1.441829 -0.5 -0.077919201)
(1.6838913 -0.5 -0.040710432)
(2.0566003 -0.5 -0.02200257)
(2.6270318 -0.5 -0.012173073)
(3.4996247 -0.5 -0.0068397733)
(4.8343512 -0.5 -0.0038803607)
(6.8759465 -0.5 -0.0022134951)
(9.9987773 -0.5 -0.0012655915)
(14.775493 -0.5 -0.00072328924)
(22.08204 -0.5 -0.00041188268)
(33.258298 -0.5 -0.00023266101)
(50.353794 -0.5 -0.00012937576)
(76.503552 -0.5 -6.9805124e-05)
(116.50301 -0.5 -3.5431266e-05)
(177.68742 -0.5 -1.5591321e-05)
(271.27704 -0.5 -4.1383504e-06)
(414.4346 -0.5 4.2453657e-06)
(2.9030163 -0.5 -4.4344529)
(3.5246898 -0.5 -7.1148727)
(4.0749662 -0.5 -11.467903)
(4.2965309 -0.5 -18.584805)
(3.6527008 -0.5 -30.303457)
(1.0605696 -0.5 -49.74107)
(-5.6105088 -0.5 -82.198449)
(-20.476459 -0.5 -136.68782)
(-51.38862 -0.5 -228.51267)
(-113.19198 -0.5 -383.60206)
(2.3264642 -0.5 -2.7702534)
(1.8438482 -0.5 -1.7161858)
(1.5428828 -0.5 -1.0448668)
(1.4250929 -0.5 -0.63283494)
(1.3494056 -0.5 -0.36659222)
(1.2844539 -0.5 -0.19448072)
(1.2893547 -0.5 -0.08909935)
(1.4406037 -0.5 -0.044174645)
(1.683845 -0.5 -0.023203297)
(2.0567027 -0.5 -0.012587125)
(2.6271619 -0.5 -0.0069814109)
(3.4997645 -0.5 -0.0039283286)
(4.8344962 -0.5 -0.0022295381)
(6.8760946 -0.5 -0.0012708727)
(9.9989273 -0.5 -0.00072499235)
(14.775644 -0.5 -0.00041241707)
(22.082191 -0.5 -0.00023282246)
(33.25845 -0.5 -0.00012942194)
(50.353947 -0.5 -6.9817264e-05)
(76.503705 -0.5 -3.5434033e-05)
(116.50316 -0.5 -1.5591798e-05)
(177.68757 -0.5 -4.1383944e-06)
(271.27704 -0.5 4.2453945e-06)
(414.43444 -0.5 1.5697848e-05)
(2.1974725 -0.5 -2.8382991)
(2.704734 -0.5 -4.512782)
(3.2219473 -0.5 -7.1968909)
(3.6126707 -0.5 -11.541399)
(3.5854192 -0.5 -18.627568)
(2.5463824 -0.5 -30.272987)
(-0.68333459 -0.5 -49.555505)
(-8.3981132 -0.5 -81.700948)
(-24.996587 -0.5 -135.57876)
(-58.821728 -0.5 -226.21846)
(-125.57642 -0.5 -379.02117)
(1.7579042 -0.5 -1.7742629)
(1.4609047 -0.5 -1.0849958)
(1.3536472 -0.5 -0.66758016)
(1.2982632 -0.5 -0.39796791)
(1.2497044 -0.5 -0.22271382)
(1.2117094 -0.5 -0.10623944)
(1.2823649 -0.5 -0.049517106)
(1.4403019 -0.5 -0.025043386)
(1.6839069 -0.5 -0.013221177)
(2.0568201 -0.5 -0.0071982267)
(2.6272949 -0.5 -0.0040017376)
(3.4999054 -0.5 -0.0022540856)
(4.8346419 -0.5 -0.0012789524)
(6.8762432 -0.5 -0.00072759777)
(9.9990776 -0.5 -0.00041323454)
(14.775795 -0.5 -0.00023306944)
(22.082343 -0.5 -0.00012949258)
(33.258602 -0.5 -6.9835834e-05)
(50.354099 -0.5 -3.5438266e-05)
(76.503857 -0.5 -1.559253e-05)
(116.50331 -0.5 -4.1384617e-06)
(177.68757 -0.5 4.2454385e-06)
(271.27689 -0.5 1.5698052e-05)
(414.43429 -0.5 3.5534546e-05)
(1.6705122 -0.5 -1.8282302)
(2.0638646 -0.5 -2.9020425)
(2.4993818 -0.5 -4.5852157)
(2.9085751 -0.5 -7.2702547)
(3.1343594 -0.5 -11.601256)
(2.8498099 -0.5 -18.647966)
(1.4014488 -0.5 -30.20508)
(-2.4902585 -0.5 -49.30615)
(-11.291674 -0.5 -81.092539)
(-29.698717 -0.5 -134.27274)
(-66.571756 -0.5 -223.5675)
(-138.51672 -0.5 -373.78328)
(1.3817673 -0.5 -1.1227767)
(1.2800039 -0.5 -0.69775406)
(1.2439888 -0.5 -0.42568834)
(1.2117133 -0.5 -0.24809204)
(1.1799415 -0.5 -0.13132927)
(1.1838076 -0.5 -0.058571329)
(1.2813751 -0.5 -0.027867764)
(1.4402763 -0.5 -0.014192511)
(1.6840034 -0.5 -0.0075302174)
(2.0569434 -0.5 -0.0041141046)
(2.62743 -0.5 -0.0022916511)
(3.5000474 -0.5 -0.0012913148)
(4.8347882 -0.5 -0.00073158375)
(6.8763922 -0.5 -0.00041448509)
(9.9992281 -0.5 -0.00023344723)
(14.775946 -0.5 -0.00012960064)
(22.082495 -0.5 -6.986424e-05)
(33.258754 -0.5 -3.544474e-05)
(50.354251 -0.5 -1.5593648e-05)
(76.504009 -0.5 -4.1385646e-06)
(116.50331 -0.5 4.2455058e-06)
(177.68742 -0.5 1.5698365e-05)
(271.27674 -0.5 3.5535318e-05)
(414.43414 -0.5 6.9893437e-05)
(1.3062831 -0.5 -1.1593766)
(1.5809244 -0.5 -1.8780194)
(1.9256801 -0.5 -2.9610741)
(2.2870127 -0.5 -4.6509866)
(2.5845386 -0.5 -7.3338191)
(2.6398213 -0.5 -11.645801)
(2.0892087 -0.5 -18.643367)
(0.21698215 -0.5 -30.095311)
(-4.3617935 -0.5 -48.985255)
(-14.293914 -0.5 -80.359298)
(-34.587457 -0.5 -132.74426)
(-74.646278 -0.5 -220.51242)
(-152.02459 -0.5 -367.79947)
(1.2054733 -0.5 -0.72310761)
(1.1871911 -0.5 -0.44927566)
(1.1707991 -0.5 -0.2703351)
(1.1517834 -0.5 -0.15201606)
(1.1342503 -0.5 -0.07252858)
(1.1781771 -0.5 -0.032233711)
(1.281138 -0.5 -0.015681511)
(1.440336 -0.5 -0.0080387338)
(1.6841125 -0.5 -0.00428615)
(2.05707 -0.5 -0.0023491491)
(2.6275668 -0.5 -0.0013102325)
(3.5001906 -0.5 -0.00073768234)
(4.8349353 -0.5 -0.00041639825)
(6.8765417 -0.5 -0.00023402517)
(9.9993789 -0.5 -0.00012976594)
(14.776098 -0.5 -6.9907691e-05)
(22.082647 -0.5 -3.5454644e-05)
(33.258907 -0.5 -1.5595359e-05)
(50.354403 -0.5 -4.1387221e-06)
(76.504009 -0.5 4.2456087e-06)
(116.50316 -0.5 1.5698843e-05)
(177.68727 -0.5 3.5536501e-05)
(271.27658 -0.5 6.9895652e-05)
(414.43399 -0.5 0.00012940603)
(1.1318779 -0.5 -0.74365836)
(1.2351425 -0.5 -1.195549)
(1.4888085 -0.5 -1.9236853)
(1.783009 -0.5 -3.0149426)
(2.0677501 -0.5 -4.7092864)
(2.2499168 -0.5 -7.3863332)
(2.1290071 -0.5 -11.673168)
(1.3033456 -0.5 -18.610832)
(-1.0076007 -0.5 -29.938751)
(-6.2989552 -0.5 -48.584182)
(-17.406436 -0.5 -79.485691)
(-39.665094 -0.5 -130.96491)
(-83.047879 -0.5 -217.00059)
(-166.10079 -0.5 -360.97139)
(1.128615 -0.5 -0.46837642)
(1.1274919 -0.5 -0.28894168)
(1.1209793 -0.5 -0.16995929)
(1.109996 -0.5 -0.090301381)
(1.1145556 -0.5 -0.039520302)
(1.177354 -0.5 -0.017968337)
(1.2811229 -0.5 -0.008817946)
(1.4404237 -0.5 -0.0045496513)
(1.6842272 -0.5 -0.0024371786)
(2.0571992 -0.5 -0.0013391865)
(2.6277052 -0.5 -0.0007470143)
(3.5003348 -0.5 -0.0004193253)
(4.8350831 -0.5 -0.00023490931)
(6.8766916 -0.5 -0.0001300188)
(9.99953 -0.5 -6.9974157e-05)
(14.77625 -0.5 -3.5469793e-05)
(22.082799 -0.5 -1.5597975e-05)
(33.259059 -0.5 -4.138963e-06)
(50.354403 -0.5 4.2457662e-06)
(76.503857 -0.5 1.5699574e-05)
(116.50301 -0.5 3.553831e-05)
(177.68711 -0.5 6.9899044e-05)
(271.27643 -0.5 0.00012941154)
(414.43384 -0.5 0.00023248704)
(1.0690933 -0.5 -0.48280074)
(1.0612861 -0.5 -0.75987085)
(1.1678704 -0.5 -1.2306766)
(1.394061 -0.5 -1.9652102)
(1.6359882 -0.5 -3.0631699)
(1.841792 -0.5 -4.7592739)
(1.9049199 -0.5 -7.4264519)
(1.6020711 -0.5 -11.681299)
(0.4922516 -0.5 -18.547097)
(-2.2724142 -0.5 -29.72993)
(-8.3019442 -0.5 -48.093361)
(-20.629275 -0.5 -78.454551)
(-44.93069 -0.5 -128.9034)
(-91.772307 -0.5 -212.97437)
(-180.73137 -0.5 -353.19229)
(1.0824644 -0.5 -0.30352443)
(1.0879586 -0.5 -0.18474887)
(1.0867461 -0.5 -0.10490013)
(1.0824015 -0.5 -0.050483091)
(1.1101194 -0.5 -0.021516862)
(1.1771606 -0.5 -0.010012736)
(1.2811761 -0.5 -0.0049533554)
(1.4405222 -0.5 -0.0025719918)
(1.6843459 -0.5 -0.0013835118)
(2.0573308 -0.5 -0.00076129628)
(2.6278452 -0.5 -0.00042380403)
(3.5004801 -0.5 -0.00023626197)
(4.8352317 -0.5 -0.00013040562)
(6.8768419 -0.5 -7.0075831e-05)
(9.9996814 -0.5 -3.5492966e-05)
(14.776402 -0.5 -1.5601977e-05)
(22.082951 -0.5 -4.1393314e-06)
(33.259059 -0.5 4.246007e-06)
(50.354251 -0.5 1.5700692e-05)
(76.503705 -0.5 3.5541077e-05)
(116.50286 -0.5 6.9904232e-05)
(177.68696 -0.5 0.00012941998)
(271.27628 -0.5 0.00023249963)
(414.43369 -0.5 0.00041103234)
(1.0364832 -0.5 -0.31385571)
(1.0094862 -0.5 -0.49254422)
(0.99510036 -0.5 -0.77286926)
(1.1026842 -0.5 -1.2630789)
(1.2967009 -0.5 -2.0024726)
(1.4847985 -0.5 -3.1052618)
(1.6094138 -0.5 -4.800085)
(1.5499042 -0.5 -7.4527516)
(1.0594119 -0.5 -11.667955)
(-0.34365573 -0.5 -18.448577)
(-3.5769473 -0.5 -29.462825)
(-10.36986 -0.5 -47.502286)
(-23.96035 -0.5 -77.247097)
(-50.379011 -0.5 -126.5257)
(-100.80633 -0.5 -208.3717)
(-195.88346 -0.5 -344.34886)
(1.0533478 -0.5 -0.19598288)
(1.0614795 -0.5 -0.11674854)
(1.0631468 -0.5 -0.062748005)
(1.0690964 -0.5 -0.02731442)
(1.1094135 -0.5 -0.011848913)
(1.1771491 -0.5 -0.0055720747)
(1.2812526 -0.5 -0.0027785165)
(1.4406267 -0.5 -0.0014513884)
(1.6844679 -0.5 -0.00078315875)
(2.0574647 -0.5 -0.00043065803)
(2.6279868 -0.5 -0.0002383316)
(3.5006266 -0.5 -0.0001309974)
(4.8353809 -0.5 -7.0231367e-05)
(6.8769927 -0.5 -3.5528414e-05)
(9.999833 -0.5 -1.56081e-05)
(14.776554 -0.5 -4.1398949e-06)
(22.082951 -0.5 4.2463754e-06)
(33.258907 -0.5 1.5702403e-05)
(50.354099 -0.5 3.554531e-05)
(76.503552 -0.5 6.9912168e-05)
(116.5027 -0.5 0.00012943288)
(177.68681 -0.5 0.00023251891)
(271.27613 -0.5 0.00041105958)
(414.43353 -0.5 0.0007202884)
(1.0178739 -0.5 -0.20342145)
(0.99034175 -0.5 -0.31989194)
(0.95062494 -0.5 -0.49778958)
(0.93341725 -0.5 -0.78401906)
(1.0378815 -0.5 -1.2917079)
(1.1968204 -0.5 -2.0352772)
(1.3296646 -0.5 -3.1407154)
(1.3709704 -0.5 -4.8308394)
(1.1853842 -0.5 -7.4637481)
(0.50171086 -0.5 -11.630738)
(-1.2034853 -0.5 -18.311376)
(-4.9198918 -0.5 -29.130886)
(-12.500375 -0.5 -46.799557)
(-27.394851 -0.5 -75.84309)
(-55.99936 -0.5 -123.79555)
(-110.12553 -0.5 -203.12736)
(-211.50104 -0.5 -334.32434)
(1.0347589 -0.5 -0.12547297)
(1.0436675 -0.5 -0.072348458)
(1.04753 -0.5 -0.035540564)
(1.0656715 -0.5 -0.014717544)
(1.1092499 -0.5 -0.0065209425)
(1.1771934 -0.5 -0.0030949847)
(1.2813391 -0.5 -0.001555362)
(1.440736 -0.5 -0.00081663437)
(1.6845932 -0.5 -0.00044114909)
(2.057601 -0.5 -0.00024149865)
(2.6281302 -0.5 -0.00013190282)
(3.5007741 -0.5 -7.0469308e-05)
(4.8355309 -0.5 -3.558264e-05)
(6.877144 -0.5 -1.5617465e-05)
(9.999985 -0.5 -4.140757e-06)
(14.776554 -0.5 4.246939e-06)
(22.082799 -0.5 1.5705019e-05)
(33.258754 -0.5 3.5551784e-05)
(50.353947 -0.5 6.9924309e-05)
(76.5034 -0.5 0.00012945262)
(116.50255 -0.5 0.0002325484)
(177.68666 -0.5 0.00041110129)
(271.27597 -0.5 0.00072034512)
(414.43338 -0.5 0.0012559469)
(1.0072873 -0.5 -0.13083189)
(0.98229252 -0.5 -0.20701565)
(0.94479049 -0.5 -0.32177187)
(0.89328487 -0.5 -0.49889382)
(0.87558696 -0.5 -0.79420779)
(0.97254096 -0.5 -1.3164611)
(1.0945611 -0.5 -2.0633876)
(1.1708542 -0.5 -3.1690244)
(1.1268979 -0.5 -4.8506487)
(0.81204001 -0.5 -7.4579161)
(-0.070035945 -0.5 -11.567118)
(-2.0857889 -0.5 -18.131332)
(-6.2989649 -0.5 -28.727081)
(-14.689395 -0.5 -45.972996)
(-30.92459 -0.5 -74.221126)
(-61.77435 -0.5 -120.67509)
(-119.69205 -0.5 -197.17469)
(-227.50118 -0.5 -323.00268)
(1.0228658 -0.5 -0.079193588)
(1.031706 -0.5 -0.043490938)
(1.0392121 -0.5 -0.019232358)
(1.0650456 -0.5 -0.0079803486)
(1.1092382 -0.5 -0.0035800474)
(1.1772574 -0.5 -0.0017146721)
(1.2814321 -0.5 -0.0008679077)
(1.4408496 -0.5 -0.00045721137)
(1.6847219 -0.5 -0.00024634587)
(2.0577398 -0.5 -0.00013328823)
(2.6282752 -0.5 -7.0833336e-05)
(3.5009228 -0.5 -3.5665592e-05)
(4.8356816 -0.5 -1.5631791e-05)
(6.8772958 -0.5 -4.1420755e-06)
(9.999985 -0.5 4.247801e-06)
(14.776402 -0.5 1.5709021e-05)
(22.082647 -0.5 3.5561688e-05)
(33.258602 -0.5 6.9942878e-05)
(50.353794 -0.5 0.0001294828)
(76.503248 -0.5 0.00023259351)
(116.5024 -0.5 0.0004111651)
(177.6865 -0.5 0.00072043203)
(271.27582 -0.5 0.0012560618)
(414.43323 -0.5 0.0021837541)
(1.0014188 -0.5 -0.083051467)
(0.97979494 -0.5 -0.13278464)
(0.94731127 -0.5 -0.2069037)
(0.90047809 -0.5 -0.31978989)
(0.83822853 -0.5 -0.49638247)
(0.82116783 -0.5 -0.80415264)
(0.90629008 -0.5 -1.3375181)
(0.99010035 -0.5 -2.0865476)
(1.0086786 -0.5 -3.1896838)
(0.87771486 -0.5 -4.8586235)
(0.43072194 -0.5 -7.4337094)
(-0.65449418 -0.5 -11.474479)
(-2.9884887 -0.5 -17.904068)
(-7.7107417 -0.5 -28.243999)
(-16.930711 -0.5 -45.009844)
(-34.537356 -0.5 -72.359076)
(-67.678787 -0.5 -117.12607)
(-129.45277 -0.5 -190.44816)
(-243.77129 -0.5 -310.27422)
(1.0152959 -0.5 -0.048944538)
(1.0238847 -0.5 -0.024952585)
(1.0366447 -0.5 -0.010279417)
(1.0649036 -0.5 -0.0043240156)
(1.1092728 -0.5 -0.0019588128)
(1.1773311 -0.5 -0.00094646363)
(1.2815307 -0.5 -0.00048181076)
(1.4409678 -0.5 -0.00025376638)
(1.6848541 -0.5 -0.00013540844)
(2.0578811 -0.5 -7.1390312e-05)
(2.628422 -0.5 -3.5792495e-05)
(3.5010727 -0.5 -1.5653705e-05)
(4.835833 -0.5 -4.1440925e-06)
(6.8772958 -0.5 4.2491196e-06)
(9.999833 -0.5 1.5715144e-05)
(14.77625 -0.5 3.5576837e-05)
(22.082495 -0.5 6.9971284e-05)
(33.25845 -0.5 0.00012952899)
(50.353642 -0.5 0.00023266251)
(76.503095 -0.5 0.0004112627)
(116.50225 -0.5 0.00072056496)
(177.68635 -0.5 0.001256238)
(271.27567 -0.5 0.0021839824)
(414.43308 -0.5 0.0037907973)
(0.99833322 -0.5 -0.05172357)
(0.98004561 -0.5 -0.083895116)
(0.95295502 -0.5 -0.13148479)
(0.91352868 -0.5 -0.20337886)
(0.85791516 -0.5 -0.31435241)
(0.7863266 -0.5 -0.49096677)
(0.77020336 -0.5 -0.81479959)
(0.83902002 -0.5 -1.3549993)
(0.88364486 -0.5 -2.104495)
(0.84349226 -0.5 -3.2021931)
(0.62402306 -0.5 -4.85388)
(0.042452583 -0.5 -7.3895795)
(-1.2499764 -0.5 -11.35016)
(-3.9088213 -0.5 -17.625075)
(-9.1505099 -0.5 -27.673982)
(-19.215703 -0.5 -43.897043)
(-38.216359 -0.5 -70.234744)
(-73.678714 -0.5 -113.11113)
(-139.33791 -0.5 -182.88636)
(-260.16778 -0.5 -296.04193)
(1.0105348 -0.5 -0.029387382)
(1.0194201 -0.5 -0.013628753)
(1.0360728 -0.5 -0.0054695094)
(1.0648904 -0.5 -0.0023330074)
(1.1093245 -0.5 -0.0010668417)
(1.1774118 -0.5 -0.0005194961)
(1.2816352 -0.5 -0.00026512953)
(1.4410908 -0.5 -0.00013865385)
(1.6849899 -0.5 -7.2242615e-05)
(2.058025 -0.5 -3.5986647e-05)
(2.6285705 -0.5 -1.5687228e-05)
(3.5012237 -0.5 -4.1471778e-06)
(4.835833 -0.5 4.2511366e-06)
(6.877144 -0.5 1.5724509e-05)
(9.9996814 -0.5 3.560001e-05)
(14.776098 -0.5 7.0014735e-05)
(22.082343 -0.5 0.00012959963)
(33.258298 -0.5 0.00023276805)
(50.35349 -0.5 0.000411412)
(76.502943 -0.5 0.0007207683)
(116.50209 -0.5 0.0012565075)
(177.6862 -0.5 0.0021843322)
(271.27552 -0.5 0.0037912434)
(414.43292 -0.5 0.0065743364)
(0.99686019 -0.5 -0.03139795)
(0.9815399 -0.5 -0.051816672)
(0.959393 -0.5 -0.081900709)
(0.92731796 -0.5 -0.1272388)
(0.88139877 -0.5 -0.19683851)