/*--------------------------------*- C++ -*----------------------------------*\
| =========                 |                                                 |
| \\      /  F ield         | OpenFOAM: The Open Source CFD Toolbox           |
|  \\    /   O peration     | Version:  2212                                  |
|   \\  /    A nd           | Website:  www.openfoam.com                      |
|    \\/     M anipulation  |                                                 |
\*---------------------------------------------------------------------------*/
FoamFile
{
    version     2.0;
    format      ascii;
    arch        "LSB;label=32;scalar=64";
    class       volVectorField;
    location    "15000";
    object      U;
}
// * * * * * * * * * * * * * * * * * * * * * * * * * * * * * * * * * * * * * //

dimensions      [0 1 -1 0 0 0 0];

internalField   nonuniform List<vector> 
3584
(
(50.315296 6.2631687e-21 13.467365)
(50.308989 1.1093397e-19 13.46493)
(50.319056 -1.0084068e-20 13.462457)
(50.306304 -4.6419633e-18 13.465374)
(50.308265 0 13.461575)
(50.318568 0 13.456852)
(50.304325 4.651304e-18 13.466551)
(50.301645 2.55392e-19 13.46204)
(50.30561 2.3935896e-20 13.452233)
(50.318216 0 13.453259)
(50.303289 -1.095048e-17 13.467548)
(50.295645 0 13.463527)
(50.296877 -5.9161808e-20 13.448155)
(50.307661 0 13.447529)
(50.318292 0 13.451831)
(50.30289 2.2012839e-17 13.468219)
(50.291954 4.8356208e-19 13.464987)
(50.287251 1.9559983e-18 13.446356)
(50.300911 6.1371972e-20 13.441453)
(50.309758 0 13.445589)
(50.318319 -7.9852558e-22 13.451244)
(50.302741 -2.2368828e-17 13.468675)
(50.290356 -1.5822765e-17 13.466187)
(50.279459 -1.1994373e-17 13.447538)
(50.289261 -3.8821505e-20 13.436239)
(50.303498 2.9778743e-20 13.43649)
(50.31064 0 13.44455)
(50.318242 8.8208889e-22 13.450938)
(50.302598 1.1261799e-17 13.468983)
(50.290052 1.5873425e-17 13.466962)
(50.273891 3.1429185e-17 13.450025)
(50.274541 -6.2293398e-19 13.434347)
(50.290415 -2.2388089e-20 13.423553)
(50.305498 0 13.433847)
(50.310984 3.437127e-23 13.444035)
(50.318144 6.8797032e-25 13.450771)
(50.302425 5.745712e-18 13.469245)
(50.28995 0 13.467403)
(50.271689 -2.1833926e-17 13.452171)
(50.259122 7.2108505e-19 13.435523)
(50.271706 3.015019e-19 13.409692)
(50.296542 -6.6297301e-21 13.417491)
(50.307427 -4.7491263e-23 13.433019)
(50.311177 3.2512499e-24 13.4438)
(50.318064 -2.3104768e-22 13.450683)
(50.30224 -5.7643841e-18 13.469503)
(50.289793 -8.1034436e-18 13.467736)
(50.271542 1.6646797e-20 13.453483)
(50.247925 1.7306657e-17 13.437232)
(50.249124 -2.0602869e-18 13.40022)
(50.283339 7.9920527e-21 13.397111)
(50.302553 0 13.415644)
(50.308852 -6.1013405e-24 13.432783)
(50.311308 6.2616552e-22 13.443687)
(50.318011 1.1893075e-22 13.450637)
(50.302053 7.5230945e-21 13.469763)
(50.289615 8.1305203e-18 13.46806)
(50.271364 0 13.454216)
(50.244704 2.4183668e-19 13.440186)
(50.226189 1.016405e-18 13.397534)
(50.260732 0 13.377223)
(50.293346 0 13.390445)
(50.306108 9.1738322e-21 13.414938)
(50.309724 0 13.432683)
(50.311395 -6.4762737e-22 13.443626)
(50.317978 1.1893993e-22 13.450611)
(50.301867 0 13.470028)
(50.28943 -8.1877573e-18 13.468392)
(50.271069 -1.7082684e-20 13.454855)
(50.244388 -1.7293226e-17 13.441998)
(50.209375 0 13.399479)
(50.225796 0 13.363909)
(50.271562 -8.4528312e-21 13.356129)
(50.299503 -1.037824e-21 13.387448)
(50.307937 -5.4947931e-21 13.41461)
(50.310216 0 13.432636)
(50.311449 1.5937149e-22 13.443593)
(50.317958 0 13.450597)
(50.301682 -3.0126726e-18 13.470298)
(50.289244 8.2212344e-18 13.468735)
(50.270742 -1.1466882e-17 13.455498)
(50.243777 2.8906825e-20 13.442992)
(50.206088 5.9417879e-20 13.404671)
(50.183173 0 13.357122)
(50.233074 -3.9222627e-20 13.316969)
(50.284632 1.0433846e-20 13.346757)
(50.303494 -2.5976248e-22 13.386521)
(50.308899 -7.6277113e-21 13.414479)
(50.310488 1.7500463e-25 13.432617)
(50.311481 -1.6125077e-22 13.443574)
(50.317947 -1.4938706e-23 13.450588)
(50.301499 6.0754948e-18 13.470573)
(50.289057 -5.7786934e-21 13.469089)
(50.270411 -6.3015459e-20 13.456162)
(50.243083 -1.7659978e-17 13.443995)
(50.205447 0 13.407191)
(50.153547 -3.1065393e-17 13.354615)
(50.178775 -1.5453948e-19 13.28251)
(50.258829 1.0021846e-19 13.293326)
(50.295717 5.7997534e-20 13.344406)
(50.306081 0 13.386261)
(50.309433 2.5811957e-21 13.414435)
(50.31064 2.5605293e-22 13.432609)
(50.311501 0 13.443564)
(50.31794 2.2460613e-23 13.450584)
(50.301318 -3.0619366e-18 13.470853)
(50.28887 5.8133794e-21 13.469456)
(50.270079 2.3150828e-17 13.45685)
(50.242354 1.7751434e-17 13.445014)
(50.204172 -3.8678855e-20 13.408945)
(50.149571 -3.3552075e-19 13.362859)
(50.118621 8.8604343e-19 13.260339)
(50.212625 2.2915082e-19 13.233986)
(50.28097 -7.5515685e-20 13.283965)
(50.302751 0 13.343767)
(50.30768 0 13.386178)
(50.309737 0 13.41442)
(50.310725 -2.5872634e-22 13.432605)
(50.311512 0 13.443558)
(50.317936 -3.748791e-24 13.450581)
(50.301139 -2.1091307e-21 13.471138)
(50.288684 4.1879251e-18 13.469835)
(50.26975 -1.164078e-17 13.457563)
(50.241624 1.7992802e-17 13.446081)
(50.202827 -7.2786488e-21 13.410786)
(50.147433 3.0968293e-17 13.366026)
(50.077757 -6.7132595e-19 13.255781)
(50.132928 -3.8314792e-19 13.18067)
(50.244242 -2.3575416e-20 13.200885)
(50.29444 -6.7433905e-20 13.28059)
(50.30676 6.9133359e-21 13.343485)
(50.308631 0 13.386157)
(50.309913 0 13.414414)
(50.310773 0 13.432602)
(50.311518 0 13.443555)
(50.317934 -5.6226348e-24 13.450579)
(50.300963 1.9745737e-21 13.471429)
(50.288499 -4.1999608e-18 13.470228)
(50.269423 1.7763881e-20 13.458304)
(50.240894 9.3620185e-20 13.447196)
(50.201436 -3.9414935e-20 13.41269)
(50.144625 3.1578749e-17 13.368834)
(50.072727 -3.7914145e-17 13.267702)
(50.03339 1.1265133e-18 13.140928)
(50.169183 3.4659881e-19 13.098854)
(50.269953 0 13.187695)
(50.302313 1.5727003e-20 13.279486)
(50.309017 -7.3328691e-21 13.343385)
(50.309188 -7.669769e-22 13.386159)
(50.310015 -1.6050158e-22 13.41441)
(50.310801 0 13.432601)
(50.311522 -5.0250046e-24 13.443553)
(50.317932 1.8748069e-24 13.450578)
(50.300789 3.2011108e-18 13.471726)
(50.288315 0 13.470636)
(50.269099 0 13.459072)
(50.240166 -1.8164584e-17 13.448362)
(50.200048 -2.3178543e-17 13.414693)
(50.141774 -3.1754533e-17 13.371747)
(50.068446 3.8062821e-17 13.271932)
(49.971853 2.3775324e-17 13.127267)
(50.049764 0 12.992674)
(50.219813 1.9214966e-19 13.061248)
(50.287768 -8.0801592e-22 13.184209)
(50.306957 -8.9791887e-21 13.279086)
(50.310304 0 13.343373)
(50.30951 3.9199882e-22 13.386164)
(50.310074 1.6136255e-22 13.414409)
(50.310817 0 13.4326)
(50.311524 5.0287775e-24 13.443551)
(50.317931 9.3743743e-25 13.450578)
(50.300619 -6.4521501e-18 13.472029)
(50.288133 0 13.471058)
(50.26878 5.920351e-18 13.459871)
(50.239442 -1.8366721e-17 13.449582)
(50.198657 4.6580957e-17 13.416796)
(50.138873 5.4339941e-20 13.374799)
(50.063215 0 13.276636)
(49.962686 3.9363225e-19 13.144132)
(49.918519 2.7052874e-17 12.911439)
(50.125644 -1.1083235e-19 12.90577)
(50.255572 1.7032409e-19 13.047832)
(50.298126 0 13.182913)
(50.309672 -4.424789e-21 13.278925)
(50.311046 -9.0845612e-22 13.343382)
(50.309697 5.8251145e-22 13.386167)
(50.310108 0 13.414408)
(50.310826 0 13.4326)
(50.311525 2.5134586e-24 13.443551)
(50.317931 -9.3754593e-25 13.450578)
(50.300452 -3.3175559e-18 13.472339)
(50.287952 1.8423498e-21 13.471496)
(50.268465 -5.9623707e-18 13.460702)
(50.238724 1.8445162e-17 13.45086)
(50.197269 -2.3442726e-17 13.419005)
(50.135969 3.2984168e-17 13.378014)
(50.057934 -5.2192144e-20 13.281434)
(49.953513 -4.9223234e-17 13.149919)
(49.839094 -2.6814266e-17 12.891521)
(49.96098 -3.044502e-18 12.742044)
(50.181203 1.7206253e-19 12.858376)
(50.274187 9.2915952e-22 13.042274)
(50.303592 0 13.182141)
(50.311238 -6.4224177e-21 13.278863)
(50.311476 9.195574e-22 13.343389)
(50.309805 -1.9448673e-22 13.38617)
(50.310128 0 13.414408)
(50.310831 0 13.432599)
(50.311526 -2.5139726e-24 13.44355)
(50.31793 0 13.450577)
(50.300288 1.320632e-17 13.472656)
(50.287775 0 13.471951)
(50.268156 0 13.461567)
(50.238014 1.5354905e-20 13.452199)
(50.195887 -1.1898223e-17 13.421325)
(50.133057 -1.6416518e-17 13.381397)
(50.052582 2.0112749e-17 13.286577)
(49.943612 -3.487185e-19 13.157345)
(49.82346 -1.9764567e-19 12.912266)
(49.763265 3.46278e-17 12.612792)
(50.034205 0 12.61476)
(50.21677 -2.0456639e-19 12.83922)
(50.283161 -2.1336096e-20 13.039576)
(50.306388 -4.8559199e-21 13.181727)
(50.312136 2.1559618e-21 13.278839)
(50.311725 0 13.343393)
(50.309867 0 13.386171)
(50.310139 0 13.414407)
(50.310834 0 13.432599)
(50.311526 6.2837017e-25 13.44355)
(50.31793 0 13.450577)
(50.300129 -6.6617232e-18 13.47298)
(50.2876 0 13.472424)
(50.267854 9.2296153e-21 13.462467)
(50.237313 0 13.453601)
(50.194515 1.1937379e-17 13.423758)
(50.130148 -3.3688901e-17 13.384962)
(50.047201 -2.0007392e-17 13.292047)
(49.933524 2.5276161e-17 13.164843)
(49.807352 1.4376125e-19 12.920426)
(49.647374 -6.4008651e-17 12.569409)
(49.80452 2.898851e-18 12.345101)
(50.117079 0 12.562874)
(50.239639 -3.3437275e-22 12.832846)
(50.287563 2.3115643e-20 13.038278)
(50.307829 4.9968093e-21 13.18153)
(50.312649 -5.3603288e-22 13.278828)
(50.311869 0 13.343396)
(50.309904 0 13.386172)
(50.310146 0 13.414407)
(50.310836 -2.0202369e-24 13.432599)
(50.311526 -3.1417908e-25 13.44355)
(50.31793 0 13.450577)
(50.299974 -1.3550235e-17 13.473311)
(50.28743 -1.5060319e-20 13.472916)
(50.267561 0 13.463406)
(50.236625 9.384718e-21 13.455072)
(50.193157 0 13.42631)
(50.127244 1.6913859e-17 13.388725)
(50.041796 7.1423547e-20 13.297877)
(49.923369 2.621796e-17 13.172961)
(49.790112 -1.4755847e-19 12.931601)
(49.619459 3.3171546e-17 12.597888)
(49.559279 1.9523738e-18 12.13427)
(49.958853 -2.3713746e-19 12.21674)
(50.182061 0 12.547834)
(50.253855 2.4999289e-20 12.830539)
(50.289797 0 13.037676)
(50.308587 -1.2399395e-21 13.181429)
(50.312943 1.0771733e-21 13.278821)
(50.311952 0 13.343398)
(50.309924 -2.4298152e-23 13.386172)
(50.310149 0 13.414407)
(50.310837 2.0201875e-24 13.432599)
(50.311526 -1.5704345e-25 13.44355)
(50.31793 -2.9273049e-26 13.450577)
(50.299825 -4.8798826e-20 13.47365)
(50.287264 -8.763417e-18 13.473427)
(50.267277 0 13.464385)
(50.235952 0 13.456616)
(50.191817 -1.2249471e-17 13.428988)
(50.124355 0 13.392698)
(50.036379 7.2496384e-20 13.304085)
(49.913139 -2.6455172e-17 13.181618)
(49.772525 -2.0992279e-19 12.943102)
(49.590779 2.4006628e-19 12.610108)
(49.404127 3.5733002e-17 12.071838)
(49.693995 -2.7299027e-18 11.843321)
(50.095688 4.6136926e-19 12.169774)
(50.225871 1.944457e-22 12.543524)
(50.262443 -3.9658972e-20 12.829696)
(50.290966 -6.1899936e-25 13.037388)
(50.308997 6.5742569e-24 13.181371)
(50.313112 -2.7036817e-22 13.278818)
(50.312001 0 13.343399)
(50.309936 2.4308885e-23 13.386173)
(50.310152 -2.5201409e-24 13.414407)
(50.310838 0 13.432599)
(50.311526 -2.3544867e-25 13.44355)
(50.31793 2.9249818e-26 13.450577)
(50.299681 1.3828173e-17 13.473997)
(50.287104 1.7598823e-17 13.47396)
(50.267005 -3.0589831e-18 13.465406)
(50.235299 4.8022973e-18 13.458235)
(50.1905 -4.9064306e-20 13.431799)
(50.121488 -1.7523564e-17 13.396894)
(50.030961 -1.1455831e-19 13.310695)
(49.902868 2.7238063e-17 13.190877)
(49.754767 5.8849145e-20 12.955775)
(49.561452 0 12.627424)
(49.346475 -1.8019122e-17 12.104012)
(49.362718 1.0911278e-18 11.567579)
(49.922 -5.3568926e-19 11.698436)
(50.199442 0 12.157616)
(50.25456 -5.0468219e-23 12.542851)
(50.267559 1.3447107e-20 12.829467)
(50.291593 0 13.037237)
(50.309223 1.2525381e-21 13.181336)
(50.313209 -2.6983967e-22 13.278816)
(50.312029 0 13.3434)
(50.309944 6.0752641e-24 13.386173)
(50.310153 3.7795506e-24 13.414407)
(50.310838 2.5233415e-25 13.432599)
(50.311526 1.176303e-25 13.44355)
(50.31793 0 13.450577)
(50.286951 2.4732463e-20 13.474515)
(50.299544 1.4017484e-17 13.474353)
(50.266747 3.0784307e-18 13.466474)
(50.234667 -2.3985466e-18 13.459936)
(50.189212 1.2332497e-17 13.43475)
(50.118653 -1.2684623e-19 13.401328)
(50.025555 2.1611067e-17 13.317731)
(49.892572 5.9669179e-19 13.200765)
(49.73683 3.1620027e-17 12.969497)
(49.531484 2.5178746e-19 12.645839)
(49.294445 -1.9099829e-17 12.121838)
(49.147115 5.6779705e-19 11.483505)
(49.61719 2.2501656e-18 11.184126)
(50.135035 -5.4167615e-19 11.663229)
(50.273501 0 12.156727)
(50.273046 -1.5008121e-20 12.543468)
(50.270585 0 12.829446)
(50.291937 0 13.037153)
(50.30935 0 13.181316)
(50.313265 6.7413161e-23 13.278814)
(50.312045 0 13.3434)
(50.309948 -3.0376535e-24 13.386173)
(50.310153 -1.8889179e-24 13.414407)
(50.310838 -2.5213727e-25 13.432599)
(50.311526 -3.9155763e-26 13.44355)
(50.31793 3.6424227e-27 13.450577)
(50.266505 -2.5748423e-20 13.467589)
(50.286806 -8.935653e-18 13.475094)
(50.299415 1.8528822e-20 13.474717)
(50.234063 -2.4326702e-18 13.461722)
(50.187958 6.2338483e-18 13.437851)
(50.115862 1.7802392e-17 13.40602)
(50.020178 -2.1872803e-17 13.325216)
(49.882277 -2.7660737e-17 13.211321)
(49.718789 -3.1846613e-17 12.984375)
(49.501249 1.7990018e-19 12.666469)
(49.242208 0 12.146173)
(49.03753 0 11.522564)
(49.267757 9.9885007e-20 10.805477)
(49.969178 -2.0139798e-19 11.066469)
(50.285381 1.3732189e-19 11.658061)
(50.322954 -2.3228811e-22 12.158395)
(50.284667 3.0943961e-20 12.544244)
(50.272365 0 12.829468)
(50.292129 0 13.037107)
(50.309422 -1.5645732e-22 13.181305)
(50.313297 -3.3738883e-23 13.278814)
(50.312055 0 13.3434)
(50.30995 -3.035943e-24 13.386173)
(50.310154 6.2914083e-25 13.414407)
(50.310838 0 13.432599)
(50.311526 0 13.44355)
(50.317929 -1.813657e-27 13.450577)
(50.233492 8.0627772e-21 13.463599)
(50.266282 0 13.468756)
(50.286671 -1.8834972e-20 13.475697)
(50.299294 -1.431187e-17 13.47509)
(50.186748 -6.2911865e-18 13.441109)
(50.113127 0 13.410983)
(50.014852 2.2406952e-17 13.333164)
(49.87201 2.4050357e-19 13.222583)
(49.700686 0 13.000467)
(49.470611 2.6369895e-19 12.689099)
(49.191582 -2.914823e-19 12.1731)
(48.934865 -2.2928173e-17 11.548819)
(49.012393 0 10.719941)
(49.640116 -2.8627717e-18 10.448363)
(50.194407 2.8358716e-19 11.031233)
(50.377209 -1.5583944e-19 11.655897)
(50.354108 3.467824e-20 12.16018)
(50.291786 -1.5665223e-20 12.544815)
(50.273406 -1.6859413e-21 12.829489)
(50.292237 0 13.03708)
(50.309463 1.5660738e-22 13.181298)
(50.313315 -5.0572475e-23 13.278813)
(50.312061 0 13.3434)
(50.309952 7.5834969e-25 13.386173)
(50.310154 0 13.414407)
(50.310838 0 13.432599)
(50.311526 0 13.44355)
(50.317929 -1.800739e-27 13.450577)
(50.185589 -3.1763039e-18 13.444533)
(50.232958 8.2027916e-22 13.465572)
(50.266081 1.2537779e-17 13.469976)
(50.286548 -1.7918401e-17 13.476328)
(50.299183 -8.321485e-20 13.475472)
(50.110465 -4.7539101e-20 13.416232)
(50.009594 -2.2506878e-17 13.341605)
(49.861804 1.4662048e-19 13.23459)
(49.682577 -4.0368587e-19 13.017852)
(49.439691 -3.9600068e-17 12.71381)
(49.142549 -2.1382115e-17 12.203515)
(48.832722 4.6115994e-17 11.583461)
(48.840782 2.233072e-17 10.751371)
(49.238551 0 10.035287)
(49.907208 -1.0397623e-18 10.301474)
(50.309463 -3.4062166e-19 11.010462)
(50.429315 0 11.654691)
(50.372967 -1.8165279e-20 12.161483)
(50.296057 -1.5310923e-25 12.545177)
(50.274012 1.6936102e-21 12.829505)
(50.292299 0 13.037065)
(50.309486 3.9130498e-23 13.181294)
(50.313326 8.4266394e-24 13.278813)
(50.312065 0 13.3434)
(50.309952 -7.5731574e-25 13.386173)
(50.310154 -7.8343707e-26 13.414407)
(50.310838 1.563376e-26 13.432599)
(50.311526 0 13.44355)
(50.317929 2.2234802e-28 13.450577)
(50.107891 4.8128864e-20 13.421784)
(50.184491 2.8155711e-18 13.448133)
(50.232468 0 13.467646)
(50.265906 -1.2602564e-17 13.471254)
(50.286438 1.8069008e-17 13.476986)
(50.299083 -8.5151046e-20 13.475863)
(50.004426 7.869837e-20 13.350562)
(49.851696 -4.9239002e-20 13.247387)
(49.664516 -2.3696882e-19 13.036611)
(49.408585 3.9941576e-17 12.740589)
(49.094711 2.1517606e-17 12.237304)
(48.731704 -4.7232957e-17 11.621902)
(48.676597 -2.227084e-17 10.777541)
(48.96169 -9.6063825e-18 9.9505294)
(49.451412 -2.2129251e-19 9.6002441)
(50.028484 2.6143498e-20 10.239157)
(50.362984 0 10.995651)
(50.458007 0 11.654324)
(50.384116 -9.0761179e-21 12.162301)
(50.29858 -1.3026201e-26 12.545397)
(50.274364 0 12.829515)
(50.292334 0 13.037057)
(50.309499 -3.9126571e-23 13.181292)
(50.313333 4.2097078e-24 13.278813)
(50.312067 -8.9561848e-25 13.3434)
(50.309953 -1.8887009e-25 13.386173)
(50.310154 7.8018557e-26 13.414407)
(50.310838 -1.1641615e-26 13.432599)
(50.311526 -5.9611892e-28 13.44355)
(50.317929 -2.1774658e-28 13.450577)
(49.999383 -1.6346723e-20 13.360045)
(50.105426 -4.6901752e-18 13.427655)
(50.183466 3.9360141e-19 13.451918)
(50.232031 -9.892437e-18 13.469828)
(50.26576 8.1897683e-20 13.472592)
(50.286344 0 13.477674)
(50.298995 -8.7119682e-20 13.476262)
(49.841734 0 13.261025)
(49.646563 1.7960967e-17 13.056826)
(49.377443 2.0080756e-19 12.769453)
(49.047569 -2.2616489e-17 12.274649)
(48.633396 -5.678531e-19 11.665108)
(48.509752 1.1384926e-17 10.813448)
(48.759514 1.0245146e-17 9.9836843)
(49.030905 0 9.1782444)
(49.57665 -3.4320227e-20 9.4349271)
(50.082161 3.6543541e-19 10.200032)
(50.387502 0 10.986905)
(50.473735 -2.0471989e-20 11.654236)
(50.390622 -9.0326638e-21 12.162786)
(50.300056 4.7940596e-27 12.545529)
(50.274567 2.1158752e-22 12.829522)
(50.292354 0 13.037052)
(50.309507 -9.7728494e-24 13.181291)
(50.313336 4.2035138e-24 13.278813)
(50.312068 8.9347627e-25 13.3434)
(50.309953 9.4043189e-26 13.386173)
(50.310154 -9.682617e-27 13.414407)
(50.310838 -5.749723e-27 13.432599)
(50.311526 4.3783207e-28 13.44355)
(50.317929 0 13.450577)
(49.831954 1.515399e-17 13.275582)
(49.994492 0 13.370089)
(50.10309 4.6832834e-18 13.433862)
(50.182526 3.2217772e-18 13.455899)
(50.231655 6.9547959e-21 13.472122)
(50.265648 -3.9396212e-20 13.473995)
(50.286269 -5.0836933e-20 13.478392)
(50.298921 -7.4917647e-20 13.476671)
(49.628786 -3.5559223e-17 13.07858)
(49.346431 -2.8847225e-19 12.800422)
(49.000675 2.2254663e-17 12.31568)
(48.539832 2.4621803e-17 11.713311)
(48.34426 -1.2720855e-17 10.856913)
(48.550059 0 10.008813)
(48.791242 7.4625923e-18 9.1270115)
(49.049574 0 8.7721629)
(49.664173 -7.1733379e-19 9.3559716)
(50.109344 -2.1253479e-19 10.175662)
(50.399059 -4.7166273e-20 10.982315)
(50.482423 2.084093e-20 11.654171)
(50.394392 3.6406337e-26 12.163071)
(50.300913 -4.9130491e-22 12.545607)
(50.274684 -3.1746733e-22 12.829526)
(50.292366 0 13.037049)
(50.309511 1.4640045e-23 13.18129)
(50.313339 -1.0483059e-24 13.278813)
(50.312069 -2.2243426e-25 13.3434)
(50.309954 9.3368978e-26 13.386173)
(50.310153 4.7820826e-27 13.414407)
(50.310838 1.8768599e-27 13.432599)
(50.311526 1.4089243e-28 13.44355)
(50.317929 0 13.450577)
(49.611259 3.6578869e-17 13.101949)
(49.822421 -1.5426657e-17 13.291102)
(49.98979 4.0701769e-20 13.380723)
(50.100909 -1.4820099e-19 13.440424)
(50.181687 -3.3190878e-18 13.460085)
(50.231349 1.2798226e-19 13.474536)
(50.265577 1.2560281e-19 13.475463)
(50.286215 -1.8034643e-17 13.479143)
(50.298862 -3.0197237e-17 13.477087)
(49.315719 0 12.83353)
(48.953799 0 12.360454)
(48.453193 0 11.766789)
(48.181696 -4.4521544e-19 10.908222)
(48.329934 0 10.043875)
(48.612975 -1.7415229e-17 9.1439241)
(48.647312 0 8.4609546)
(49.172983 0 8.5949906)
(49.731764 8.5780486e-19 9.3125926)
(50.125127 -1.099061e-19 10.162733)
(50.404775 4.8525522e-20 10.979832)
(50.487275 -5.2107781e-21 11.654113)
(50.396567 0 12.163237)
(50.301408 7.3747341e-22 12.545653)
(50.274751 1.0575865e-22 12.829528)
(50.292373 0 13.037048)
(50.309514 -2.4341873e-24 13.18129)
(50.31334 1.0439342e-24 13.278813)
(50.31207 2.2083791e-25 13.3434)
(50.309954 1.1528038e-26 13.386173)
(50.310153 3.5121436e-27 13.414407)
(50.310838 0 13.432599)
(50.311526 0 13.44355)
(50.317929 1.2621725e-29 13.450577)
(49.285471 -2.2155299e-17 12.868825)
(49.594072 -1.8552764e-17 13.127002)
(49.8132 0 13.307647)
(49.985316 6.5987897e-20 13.391977)
(50.098911 1.4320798e-19 13.447357)
(50.180964 -6.5484509e-18 13.464486)
(50.231125 3.0316664e-17 13.477073)
(50.265551 0 13.477002)
(50.286186 1.8551332e-17 13.479928)
(50.298821 2.6570315e-19 13.47751)
(48.906947 -2.4111067e-17 12.408912)
(48.373927 0 11.825191)
(48.023319 -1.4024612e-17 10.966984)
(48.101452 1.4998154e-18 10.084828)
(48.416801 -5.7677688e-19 9.1482158)
(48.445984 7.1033082e-18 8.4688302)
(48.670903 0 8.1009037)
(49.302516 0 8.5239936)
(49.781758 -1.0902792e-21 9.2887134)
(50.134777 -1.1104477e-19 10.1563)
(50.407748 1.2576942e-24 10.978395)
(50.490012 5.2410078e-21 11.654076)
(50.397819 5.655588e-22 12.163335)
(50.301692 -3.6852308e-22 12.545679)
(50.274789 2.6399507e-23 12.829529)
(50.292376 0 13.037047)
(50.309516 -2.423856e-24 13.18129)
(50.313341 0 13.278813)
(50.312071 0 13.3434)
(50.309954 -1.1288327e-26 13.386173)
(50.310153 1.130094e-27 13.414407)
(50.310838 0 13.432599)
(50.311526 0 13.44355)
(50.317929 -6.5692499e-29 13.450577)
(48.860296 -4.7096092e-19 12.460941)
(49.255844 -3.4320898e-19 12.906355)
(49.57733 0 13.153782)
(49.804365 -1.0809308e-19 13.325279)
(49.981119 4.382122e-20 13.403882)
(50.097128 -2.5763655e-20 13.45468)
(50.180379 6.6424675e-18 13.469113)
(50.230996 2.0008159e-17 13.47974)
(50.265579 0 13.478614)
(50.286187 0 13.480746)
(50.298799 1.6476247e-19 13.47794)
(48.300605 0 11.888068)
(47.869145 1.3288951e-17 11.032438)
(47.865517 -1.2959138e-17 10.132818)
(48.206775 1.8611176e-17 9.151643)
(48.29779 3.6356211e-19 8.4877811)
(48.341897 0 7.9644089)
(48.820189 0 7.9541254)
(49.404092 1.6276613e-21 8.4875898)
(49.815813 1.2142654e-19 9.2763079)
(50.140676 -5.7353617e-24 10.152901)
(50.409363 -2.3403672e-25 10.977553)
(50.491569 -1.3097307e-21 11.654056)
(50.398538 -5.6578795e-22 12.163391)
(50.301854 1.2268778e-22 12.545694)
(50.27481 -3.9505867e-23 12.82953)
(50.292379 -2.8300899e-24 13.037046)
(50.309517 0 13.181289)
(50.313341 0 13.278813)
(50.312071 -6.6741453e-27 13.3434)
(50.309954 0 13.386173)
(50.310153 0 13.414407)
(50.310837 0 13.432599)
(50.311526 1.4089567e-28 13.44355)
(50.317929 5.4437881e-29 13.450577)
(48.231113 2.7586912e-17 11.955435)
(48.814109 2.4443651e-17 12.516434)
(49.226991 -3.1833306e-19 12.946175)
(49.56114 0 13.182312)
(49.796 -8.1743851e-18 13.344035)
(49.97725 -1.0494234e-20 13.416466)
(50.095596 0 13.462408)
(50.179951 1.6995446e-19 13.473976)
(50.230977 -4.0992218e-17 13.482542)
(50.265668 0 13.480301)
(50.286222 0 13.4816)
(50.298798 3.0855659e-17 13.478374)
(47.719447 0 11.103963)
(47.623755 1.3390671e-17 10.187951)
(47.981358 -9.6676075e-18 9.1484034)
(48.142684 -7.4703694e-18 8.4846522)
(48.178936 0 8.0249103)
(48.401474 -1.5717652e-18 7.7425947)
(48.953661 8.3565103e-19 7.8984286)
(49.474247 -2.5571768e-19 8.4651578)
(49.837494 -1.271002e-19 9.2700704)
(50.144233 3.8344227e-25 10.150974)
(50.410273 0 10.977071)
(50.492459 1.9663229e-21 11.654045)
(50.398948 -1.4122446e-22 12.163423)
(50.301946 0 12.545703)
(50.274822 6.5563674e-24 12.82953)
(50.29238 2.8094141e-24 13.037046)
(50.309517 -1.4852201e-25 13.181289)
(50.313342 0 13.278813)
(50.312072 6.4413831e-27 13.3434)
(50.309954 0 13.386173)
(50.310152 2.7138442e-28 13.414407)
(50.310837 4.5296385e-28 13.432599)
(50.311526 -7.29744e-28 13.44355)
(50.317929 0 13.450577)
(47.576997 2.8537051e-17 11.181598)
(48.163744 -2.689381e-17 12.027582)
(48.768669 0 12.57533)
(49.199081 2.3587378e-17 12.988343)
(49.545613 0 13.212622)
(49.788196 8.1863727e-18 13.363954)
(49.97377 -4.2827991e-21 13.429755)
(50.094356 -1.3038482e-19 13.470558)
(50.179707 -1.3506403e-17 13.479082)
(50.231083 -1.1030624e-19 13.485483)
(50.265827 0 13.482065)
(50.286296 -1.02538e-19 13.482489)
(50.298821 1.5166763e-19 13.478811)
(47.378831 -7.5246277e-18 10.249748)
(47.740743 0 9.1388356)
(47.977859 4.1699761e-18 8.4650502)
(48.066777 -3.6236951e-19 8.0257279)
(48.21069 1.154921e-18 7.8160637)
(48.515687 -1.2948298e-18 7.645611)
(49.052671 -1.0049043e-18 7.8681453)
(49.519162 2.7548607e-19 8.4523906)
(49.850704 3.2245334e-20 9.2668051)
(50.146359 0 10.14987)
(50.410802 0 10.976799)
(50.492971 -6.54826e-22 11.654039)
(50.399182 7.0464794e-23 12.163442)
(50.301997 -1.5230198e-23 12.545708)
(50.274828 6.5074627e-24 12.829531)
(50.292381 0 13.037045)
(50.309518 1.4538927e-25 13.181289)
(50.313342 0 13.278813)
(50.312072 0 13.3434)
(50.309954 0 13.386173)
(50.310152 8.4757888e-28 13.414407)
(50.310837 1.4076743e-27 13.432599)
(50.311526 5.9613778e-28 13.44355)
(50.317929 -1.8008094e-27 13.450577)
(47.134493 1.5349473e-17 10.316598)
(47.446954 -2.8570573e-17 11.265806)
(48.097522 2.8602222e-17 12.104603)
(48.72424 -2.6593731e-17 12.637625)
(49.172288 -1.202154e-17 13.032941)
(49.530908 0 13.244704)
(49.781055 6.9952036e-21 13.385067)
(49.970746 0 13.443769)
(50.093454 -1.9616599e-17 13.47914)
(50.179673 1.3637775e-17 13.484438)
(50.231333 1.1068675e-19 13.488565)
(50.266068 2.5399711e-17 13.483906)
(50.286415 -3.6415092e-17 13.483413)
(50.298869 0 13.479248)
(47.484762 0 9.1224655)
(47.800101 2.1775553e-19 8.4225697)
(47.957369 0 8.0019297)
(48.12922 1.0721372e-18 7.863418)
(48.302875 0 7.7716661)
(48.621414 1.6880031e-18 7.614856)
(49.120306 -2.4328096e-22 7.8480994)
(49.546837 -7.1058455e-20 8.4457813)
(49.858552 -3.2700781e-20 9.2649924)
(50.147631 -3.3547511e-26 10.149248)
(50.41112 0 10.976644)
(50.493267 0 11.654036)
(50.399313 3.5070935e-23 12.163452)
(50.302025 1.511556e-23 12.545711)
(50.274831 0 12.829531)
(50.292381 0 13.037045)
(50.309519 0 13.181289)
(50.313343 0 13.278813)
(50.312072 0 13.3434)
(50.309954 0 13.386173)
(50.310152 3.5121777e-27 13.414407)
(50.310837 -5.7498532e-27 13.432599)
(50.311526 0 13.44355)
(50.317929 1.8137408e-27 13.450577)
(47.214162 3.4594037e-18 9.0997657)
(46.89412 -7.1706319e-18 10.386472)
(47.332153 2.6531267e-19 11.355782)
(48.032084 4.7865368e-19 12.186282)
(48.681067 2.645749e-17 12.703375)
(49.146742 1.220067e-17 13.080081)
(49.517153 4.899454e-18 13.278591)
(49.774685 0 13.407396)
(49.968251 3.5025131e-20 13.458526)
(50.092939 2.4875163e-19 13.488165)
(50.179882 -1.8517888e-19 13.490049)
(50.231747 0 13.49179)
(50.2664 -2.6137811e-17 13.485826)
(50.286585 3.7067486e-17 13.48437)
(50.298945 0 13.479683)
(47.607588 -4.2806939e-18 8.3573457)
(47.840733 0 7.9451256)
(48.086242 2.2096631e-18 7.8233817)
(48.297013 -1.6217341e-20 7.9351299)
(48.419336 -3.2927485e-20 7.7832285)
(48.705993 -4.8794479e-19 7.5983106)
(49.164725 -1.4648747e-19 7.8360902)
(49.563492 3.6396958e-20 8.4423595)
(49.863159 8.1886056e-21 9.2639681)
(50.148401 -1.7889517e-21 10.1489)
(50.411322 -3.8329866e-22 10.976556)
(50.493439 0 11.654033)
(50.399385 3.4792378e-23 12.163459)
(50.302039 -1.8648605e-24 12.545713)
(50.274832 -1.9642834e-25 12.829531)
(50.292381 0 13.037045)
(50.30952 0 13.181289)
(50.313343 0 13.278812)
(50.312072 0 13.3434)
(50.309954 -1.1288257e-26 13.386173)
(50.310152 4.7821159e-27 13.414407)
(50.310836 -1.1641931e-26 13.432599)
(50.311526 0 13.44355)
(50.317929 0 13.450577)
(47.398692 -3.0494166e-19 8.2687778)
(46.930176 -3.18257e-18 9.0711173)
(46.658787 -8.2999436e-18 10.460167)
(47.229812 2.9470646e-17 11.449792)
(47.967456 -2.931238e-17 12.272274)
(48.639356 -1.8908387e-19 12.77264)
(49.122647 1.6797832e-19 13.12985)
(49.504509 -5.0501988e-18 13.314296)
(49.769203 4.1572977e-18 13.430953)
(49.966368 -1.2365092e-17 13.474033)
(50.092868 3.9907437e-17 13.497636)
(50.180367 -2.6827536e-17 13.495916)
(50.232347 0 13.495156)
(50.266837 3.4620217e-19 13.48782)
(50.286813 0 13.485358)
(50.299048 4.1697967e-19 13.480111)
(47.715283 -2.167474e-18 7.8559738)
(48.041579 -3.4274024e-18 7.7538425)
(48.317383 -1.5806211e-18 7.8820265)
(48.536981 2.4812504e-20 8.0883353)
(48.521811 -6.9213726e-19 7.7980402)
(48.76129 5.3692723e-19 7.5874382)
(49.193394 2.2684252e-19 7.8295637)
(49.573359 3.64519e-20 8.4404885)
(49.865862 -4.0922886e-21 9.2633949)
(50.148882 1.7816659e-21 10.148703)
(50.411458 3.8115317e-22 10.976505)
(50.49354 0 11.654033)
(50.399424 0 12.163461)
(50.302044 2.2795915e-24 12.545714)
(50.274831 1.8931569e-25 12.82953)
(50.292382 0 13.037045)
(50.30952 0 13.181288)
(50.313343 0 13.278811)
(50.312073 -2.6696257e-26 13.3434)
(50.309954 1.1527966e-26 13.386173)
(50.310151 -9.6826973e-27 13.414407)
(50.310836 1.5634171e-26 13.432599)
(50.311526 0 13.44355)
(50.317929 0 13.450577)
(47.57899 2.2484912e-18 7.7368551)
(47.173427 -3.2681665e-19 8.1574519)
(46.634284 -2.1921802e-19 9.0344212)
(46.428621 7.6161198e-18 10.537269)
(47.134698 -4.4632951e-17 11.547839)
(47.903902 2.9021837e-19 12.362338)
(48.599243 0 12.845366)
(49.10019 -6.2359512e-18 13.182284)
(49.493137 -9.4407879e-21 13.351826)
(49.764735 -1.2918519e-17 13.455738)
(49.965183 -1.7965756e-19 13.490292)
(50.093298 -2.0149354e-17 13.507552)
(50.181167 2.7593516e-17 13.502037)
(50.233157 -4.051461e-17 13.498659)
(50.267391 0 13.489885)
(50.287106 2.0263674e-19 13.486373)
(50.299181 2.9938864e-19 13.48053)
(47.987134 9.1107993e-19 7.6423992)
(48.346819 0 7.7749463)
(48.678404 5.8378532e-19 8.1119736)
(48.743289 2.3016666e-18 8.2290646)
(48.553728 7.5849481e-19 7.8066933)
(48.797133 -6.2211519e-23 7.5801537)
(49.211417 -7.5759784e-20 7.8260567)
(49.579159 0 8.4394333)
(49.867464 -4.0529592e-21 9.2630762)
(50.149196 0 10.148591)
(50.411557 -4.7160769e-23 10.976476)
(50.493601 0 11.654031)
(50.399442 -1.0480376e-24 12.163464)
(50.302046 -3.2930071e-25 12.545713)
(50.27483 0 12.829531)
(50.292382 0 13.037042)
(50.309521 0 13.181285)
(50.313343 6.2634326e-26 13.278811)
(50.312073 2.7264903e-26 13.3434)
(50.309955 -9.3366784e-26 13.386173)
(50.310151 0 13.414407)
(50.310836 0 13.432599)
(50.311526 -3.9157729e-26 13.44355)
(50.317929 0 13.450577)
(47.923066 0 7.4997987)
(47.433094 0 7.5909461)
(46.933867 0 8.0238254)
(46.327109 -1.7215507e-19 8.9913574)
(46.202395 4.3384337e-19 10.617706)
(47.042832 1.4716392e-17 11.651623)
(47.841853 -1.5352503e-17 12.456441)
(48.560979 -7.1430823e-18 12.92153)
(49.079573 4.6917143e-18 13.237394)
(49.483214 5.1705153e-18 13.391179)
(49.761412 8.8891527e-18 13.481741)
(49.964792 1.278912e-17 13.507291)
(50.094293 1.9537471e-17 13.517902)
(50.182321 2.7485702e-17 13.508401)
(50.234202 4.1241577e-17 13.502292)
(50.268078 -4.9649198e-17 13.492015)
(50.287471 -9.1904035e-19 13.487411)
(50.299343 5.9705402e-17 13.480935)
(48.368147 1.2875391e-18 7.6262771)
(48.742503 -2.869278e-19 7.9340464)