/*--------------------------------*- C++ -*----------------------------------*\
| =========                 |                                                 |
| \\      /  F ield         | OpenFOAM: The Open Source CFD Toolbox           |
|  \\    /   O peration     | Version:  2212                                  |
|   \\  /    A nd           | Website:  www.openfoam.com                      |
|    \\/     M anipulation  |                                                 |
\*---------------------------------------------------------------------------*/
FoamFile
{
    version     2.0;
    format      ascii;
    arch        "LSB;label=32;scalar=64";
    class       volScalarField;
    location    "0.064";
    object      k;
}
// * * * * * * * * * * * * * * * * * * * * * * * * * * * * * * * * * * * * * //

dimensions      [0 2 -2 0 0 0 0];

internalField   nonuniform List<scalar> 
18080
(
0.0011027736
0.0011107357
0.0011233496
0.0011409338
0.0011640729
0.00119344
0.0012297167
0.0012736268
0.0013259475
0.0013875011
0.0014591467
0.001541775
0.0016363013
0.0017436571
0.0018647676
0.0020005234
0.0021517329
0.0023190491
0.0025028227
0.0027024675
0.0029184217
0.0031508812
0.003399407
0.0036630203
0.0039402047
0.0042288974
0.0045264828
0.0048298476
0.0051354727
0.0054394135
0.0057375577
0.0060258199
0.006300239
0.006557216
0.0067938672
0.0070079148
0.0071981066
0.0073640247
0.0075061445
0.0076257189
0.0077246059
0.0078050863
0.0078696657
0.0079208834
0.0079610992
0.0079924426
0.0080168516
0.0080359717
0.0011030249
0.001110892
0.0011232239
0.0011403838
0.0011629484
0.0011915632
0.0012268806
0.0012695939
0.0013204488
0.001380237
0.0014497899
0.0015299774
0.0016217056
0.0017259149
0.0018435666
0.0019756279
0.0021230436
0.0022867031
0.0024673994
0.0026658274
0.0028823571
0.0031169852
0.0033693089
0.0036384428
0.003922933
0.0042207035
0.0045290166
0.0048444983
0.0051632249
0.0054807181
0.0057922551
0.0060930922
0.0063786499
0.0066448302
0.006888284
0.0071065805
0.007298349
0.0074633091
0.0076022094
0.0077166831
0.0078090474
0.0078820616
0.0079386857
0.0079818597
0.0080144092
0.0080389445
0.0080573783
0.0080713204
0.0011030184
0.0011107802
0.0011229949
0.0011400185
0.0011624235
0.0011908565
0.0012259723
0.0012684655
0.0013190806
0.0013786049
0.0014478616
0.0015277071
0.0016190274
0.001722734
0.0018397493
0.0019709886
0.0021173305
0.0022795799
0.0024584234
0.0026543974
0.0028677122
0.0030982514
0.0033455077
0.0036084951
0.0038856844
0.0041749831
0.0044737315
0.0047787318
0.0050863517
0.005392464
0.0056927731
0.0059830176
0.0062590661
0.0065171754
0.0067543455
0.0069682307
0.0071575281
0.0073218273
0.0074616575
0.0075783747
0.0076739858
0.0077509461
0.0078119382
0.0078596593
0.0078966367
0.0079251557
0.0079471336
0.0079642332
0.0011031505
0.0011109291
0.0011231265
0.0011401014
0.0011624268
0.0011907454
0.0012257062
0.001267997
0.0013183553
0.0013775616
0.0014464335
0.0015258232
0.001616615
0.0017197222
0.0018360729
0.0019665948
0.0021121851
0.0022736751
0.0024517805
0.0026470324
0.0028597413
0.0030899079
0.0033371301
0.0036005215
0.0038786398
0.0041694361
0.0044702142
0.0047776776
0.0050880273
0.0053969611
0.0056999821
0.0059926106
0.0062705411
0.0065299282
0.0067676663
0.0069814455
0.0071699803
0.0073329533
0.007471002
0.007585592
0.0076788373
0.0077532873
0.0078117054
0.0078568598
0.0078913847
0.0079176882
0.0079376609
0.0079529729
0.0011032476
0.0011110146
0.0011231799
0.0011401044
0.0011623587
0.0011905852
0.0012254333
0.001267591
0.0013177957
0.0013768266
0.0014454988
0.0015246603
0.0016151889
0.0017179892
0.0018339774
0.0019640656
0.0021091318
0.0022699837
0.0024473115
0.0026416314
0.0028532152
0.0030820113
0.0033275683
0.0035889612
0.003864724
0.0041528045
0.0044505312
0.004754669
0.0050615251
0.0053669176
0.0056664902
0.0059559159
0.0062310205
0.006488048
0.0067239794
0.0069365035
0.0071243359
0.0072871058
0.0074253804
0.0075405467
0.0076346374
0.0077101269
0.007769712
0.0078161035
0.0078518489
0.0078792457
0.0079001877
0.0079163745
0.0011034355
0.0011112405
0.0011234164
0.0011403312
0.0011625548
0.0011907292
0.0012255024
0.0012675597
0.0013176347
0.0013765022
0.0014449727
0.0015238892
0.001614125
0.0017165807
0.0018321693
0.0019618014
0.002106355
0.0022666403
0.0024433517
0.0026370091
0.0028478931
0.0030759671
0.0033207983
0.0035814799
0.0038565618
0.0041440088
0.0044411717
0.0047448342
0.0050513125
0.0053564247
0.0056558089
0.0059451254
0.0062201855
0.0064772202
0.0067131941
0.0069257875
0.0071137045
0.0072765676
0.0074149379
0.0075301977
0.0076243759
0.007699945
0.0077596022
0.0078060605
0.0078418692
0.0078693174
0.0078902903
0.0079065093
0.0011037232
0.0011116053
0.0011238169
0.0011407435
0.0011629571
0.0011911018
0.0012258263
0.0012678156
0.0013178023
0.0013765596
0.0014448955
0.0015236502
0.0016136936
0.0017159219
0.0018312434
0.0019605633
0.0021047537
0.0022646185
0.002440846
0.0026339513
0.0028442111
0.0030715863
0.003315643
0.0035754769
0.0038496456
0.0041361276
0.0044322922
0.0047349472
0.0050404424
0.0053446277
0.0056431792
0.0059317984
0.0062063288
0.0064630206
0.0066988611
0.0069115207
0.0070997006
0.0072629997
0.007401951
0.0075179065
0.0076128647
0.0076892711
0.0077498012
0.0077971507
0.0078338293
0.0078620592
0.0078837279
0.0079005826
0.0011041269
0.0011121403
0.0011244307
0.0011414092
0.0011636525
0.0011918088
0.0012265285
0.0012684968
0.001318445
0.0013771441
0.0014453991
0.0015240466
0.0016139526
0.00171601
0.0018311233
0.0019601952
0.0021040956
0.0022636277
0.0024394808
0.0026321724
0.0028419842
0.0030688846
0.0033124502
0.0035717905
0.0038454794
0.0041315144
0.0044272852
0.0047296213
0.0050348979
0.0053389808
0.0056375634
0.0059263626
0.0062012282
0.0064584061
0.0066948842
0.0069083102
0.0070973721
0.007261642
0.0074016261
0.0075186504
0.0076146904
0.0076921739
0.007753765
0.0078021533
0.0078398213
0.0078689337
0.0078913836
0.0079089499
0.0011046787
0.0011128999
0.0011253291
0.0011424116
0.0011647326
0.0011929479
0.0012277121
0.0012697124
0.0013196801
0.001378385
0.0014466302
0.0015252502
0.0016151086
0.0017170959
0.0018321149
0.0019610665
0.00210482
0.0022641789
0.0024398338
0.0026323054
0.0028418807
0.0030685354
0.0033118564
0.0035709657
0.0038444527
0.004130333
0.0044260162
0.0047283538
0.0050337482
0.0053380809
0.0056370635
0.0059264316
0.0062020424
0.0064601349
0.0066977002
0.006912355
0.0071027723
0.0072684903
0.0074099809
0.0075285386
0.0076261104
0.0077051038
0.0077681708
0.0078179956
0.0078570228
0.0078873368
0.0079108455
0.007929369
0.0011054107
0.0011139446
0.0011265948
0.0011438516
0.0011663139
0.0011946507
0.0012295243
0.0012716256
0.0013216875
0.0013804798
0.0014488042
0.0015274938
0.0016174103
0.0017194433
0.0018344949
0.0019634665
0.0021072291
0.0022665892
0.0024422424
0.0026347164
0.0028443078
0.0030710043
0.003314407
0.0035736552
0.0038473567
0.0041335478
0.0044296588
0.0047325614
0.0050386837
0.0053439152
0.0056439778
0.0059346172
0.0062116867
0.006471405
0.0067107579
0.0069273171
0.0071197334
0.007287502
0.0074310548
0.0075516511
0.0076512086
0.0077321161
0.0077970184
0.0078486005
0.0078892677
0.0079210121
0.0079457675
0.0079654063
0.0011063435
0.0011153232
0.001128302
0.0011458253
0.0011685116
0.0011970498
0.0012321143
0.0012744031
0.0013246524
0.0013836332
0.0014521473
0.0015310274
0.0016211352
0.0017233613
0.0018386092
0.0019677839
0.002111761
0.0022713534
0.0024472655
0.0026400356
0.0028499736
0.0030770824
0.0033209806
0.0035808265
0.0038552478
0.0041423012
0.0044394355
0.0047435396
0.005051064
0.0053578982
0.005659766
0.0059524161
0.0062316884
0.0064937687
0.0067356321
0.0069547904
0.0071498671
0.0073203059
0.0074664916
0.0075896449
0.0076916527
0.0077748871
0.0078419902
0.0078956549
0.0079382428
0.0079716335
0.0079978024
0.008018688
0.0011074879
0.001117073
0.0011305148
0.0011484213
0.0011714362
0.0012002762
0.001235634
0.0012782181
0.0013287707
0.0013880654
0.0014569058
0.0015361258
0.0016265891
0.0017291894
0.0018448348
0.001974437
0.0021188799
0.0022789875
0.002455477
0.0026489022
0.0028595911
0.0030875661
0.0033324672
0.0035934745
0.003869237
0.0041578317
0.0044567234
0.0047628131
0.0050725692
0.0053818693
0.0056864277
0.0059819852
0.0062643543
0.0065296717
0.0067748927
0.0069974521
0.0071959392
0.0073697358
0.0075191735
0.0076454306
0.0077503632
0.00783633
0.0079059782
0.0079620181
0.0080067644
0.0080419646
0.0080696542
0.008091855
0.0011088407
0.0011192091
0.001133271
0.0011517001
0.0011751701
0.0012044343
0.0012402101
0.0012832209
0.0013342173
0.001393978
0.0014633096
0.0015430498
0.0016340663
0.0017372593
0.0018535453
0.0019838468
0.0021290611
0.0022900284
0.0024674846
0.0026620043
0.002873939
0.0031033358
0.0033498597
0.0036127152
0.0038905729
0.0041815285
0.0044830581
0.0047920675
0.0051050355
0.0054178131
0.0057260897
0.0060255844
0.0063120652
0.0065815989
0.0068311121
0.0070579424
0.0072606388
0.0074385116
0.0075918334
0.0077217387
0.0078300539
0.0079191303
0.0079916297
0.0080502924
0.0080973823
0.0081344911
0.0081637378
0.0081872475
0.0011103753
0.0011217026
0.0011365512
0.0011556571
0.0011797269
0.001209558
0.0012458992
0.0012894926
0.0013410998
0.0014015058
0.001471523
0.0015519947
0.0016437961
0.0017478379
0.001865049
0.0019963685
0.002142713
0.0023049451
0.002483826
0.002679958
0.0028937222
0.0031251958
0.0033740735
0.0036395868
0.0039204281
0.0042147085
0.0045199078
0.0048329256
0.0051502405
0.005467658
0.0057808252
0.0060854241
0.0063771587
0.0066520035
0.0069068444
0.0071388987
0.0073466678
0.0075293795
0.0076872418
0.007821345
0.0079334893
0.0080260263
0.008101645
0.0081631311
0.0082126943
0.0082517427
0.0082825071
0.0083072386
0.0011120415
0.0011244758
0.0011402652
0.0011602009
0.0011850233
0.0012155791
0.0012526527
0.0012970075
0.0013494168
0.0014106734
0.0014815968
0.0015630392
0.0016558869
0.0017610655
0.0018795221
0.0020122186
0.002160098
0.0023240529
0.0025048777
0.0027032099
0.0029194677
0.0031537646
0.0034058286
0.00367492
0.0039597545
0.0042584576
0.0045685072
0.0048867855
0.0052097549
0.0055331468
0.0058525367
0.0061635453
0.0064617893
0.0067431274
0.0070043973
0.0072426749
0.0074564106
0.0076447412
0.0078078065
0.0079466535
0.0080630609
0.0081593903
0.0082383719
0.0083028539
0.0083549864
0.0083959564
0.0084281401
0.00845394
0.0011137599
0.0011273922
0.0011442373
0.0011651334
0.0011908554
0.0012223
0.0012602876
0.0013056012
0.0013590241
0.0014213568
0.0014934275
0.0015761001
0.0016702763
0.001776902
0.0018969489
0.0020314092
0.0021812605
0.002347434
0.0025307665
0.0027319391
0.0029514148
0.0031893534
0.003445525
0.0037192169
0.0040091576
0.0043134742
0.0046296307
0.0049544828
0.0052844841
0.0056152871
0.0059423718
0.0062612624
0.0065674437
0.0068566165
0.0071255489
0.0073711506
0.007591819
0.0077865968
0.0079555588
0.0080997167
0.0082208371
0.0083213043
0.0084039064
0.0084715734
0.0085263833
0.0085692503
0.0086027316
0.0086294107
0.0011154228
0.0011302588
0.0011482063
0.0011701477
0.001196894
0.0012293872
0.0012684769
0.0013149578
0.0013696176
0.001433262
0.0015067292
0.0015908979
0.0016866896
0.0017950766
0.0019170623
0.0020536775
0.0022059432
0.0023748391
0.0025612538
0.0027659246
0.0029893654
0.0032317721
0.0034929513
0.0037722471
0.0040684237
0.0043796143
0.0047032544
0.0050361366
0.0053746163
0.0057142154
0.0060503523
0.0063784885
0.0066939797
0.0069923419
0.0072702589
0.0075244244
0.0077531719
0.0079554309
0.0081312039
0.0082814684
0.0084079825
0.0085131598
0.0085998566
0.0086710967
0.008728855
0.0087736937
0.0088084028
0.0088357883
0.0011169032
0.0011328473
0.0011518578
0.0011748682
0.0012027314
0.0012364231
0.0012768042
0.0013246648
0.001380786
0.0014459758
0.0015210826
0.0016070032
0.001704684
0.0018151298
0.0019393836
0.0020785232
0.0022336227
0.0024057215
0.0025957688
0.0028045471
0.003032648
0.0032803555
0.0035475732
0.0038337385
0.0041376461
0.0044574229
0.004790448
0.0051334055
0.0054823943
0.0058328213
0.006180033
0.0065192798
0.0068457595
0.0071548301
0.0074431279
0.0077071195
0.0079450743
0.0081557917
0.0083391964
0.0084962363
0.0086286691
0.0087389497
0.0088300156
0.0089049987
0.0089657514
0.0090124259
0.0090480961
0.0090758295
0.0011180711
0.0011349237
0.0011548677
0.0011789088
0.0012079515
0.0012429824
0.0012848422
0.0013342893
0.001392085
0.0014590352
0.0015360003
0.0016238983
0.0017237053
0.0018364656
0.0019632689
0.0021052492
0.0022635424
0.0024392452
0.0026333885
0.0028468541
0.0030803832
0.0033343814
0.0036087944
0.0039029947
0.0042157979
0.0045453548
0.0048890474
0.0052435478
0.0056051246
0.0059689437
0.0063297606
0.0066823103
0.0070217093
0.0073432487
0.0076434169
0.0079184883
0.0081667043
0.0083867552
0.0085785002
0.0087428694
0.0088816342
0.0089973042
0.0090929119
0.0091717105
0.0092354236
0.0092837616
0.0093201135
0.0093478346
0.0011188136
0.0011362863
0.0011569628
0.0011819546
0.0012122298
0.0012487458
0.0012922716
0.0013435004
0.0014031609
0.0014720562
0.0015510605
0.0016411171
0.0017432366
0.0018585095
0.0019880795
0.0021331385
0.002294893
0.0024745358
0.0026732287
0.002892019
0.0031315963
0.0033923601
0.0036743293
0.0039770159
0.004299291
0.0046393183
0.0049944364
0.0053612125
0.0057357723
0.0061131555
0.0064882382
0.0068559439
0.0072104991
0.0075464061
0.0078598296
0.0081472784
0.0084069031
0.0086373264
0.0088383786
0.0090109914
0.009156953
0.0092788234
0.009379721
0.0094630052
0.0095302118
0.0095805126
0.00961766
0.0096453489
0.0011190646
0.0011368161
0.001157985
0.0011838412
0.0012154222
0.0012535883
0.0012989661
0.001352149
0.0014138289
0.0014848096
0.001565983
0.0016583219
0.0017628772
0.0018807889
0.0020132547
0.0021615485
0.0023269774
0.0025108856
0.0027144484
0.0029386844
0.003184455
0.0034522979
0.0037423179
0.0040540823
0.0043864938
0.0047377205
0.0051050577
0.0054849712
0.0058734884
0.0062654694
0.0066555803
0.00703844
0.0074084742
0.0077602287
0.0080892088
0.0083907547
0.0086629284
0.0089047084
0.0091159247
0.0092975696
0.0094514827
0.0095802834
0.0096871663
0.0097755691
0.0098467727
0.0098993216
0.0099373674
0.0099650009
0.001118819
0.0011365017
0.0011579263
0.0011845989
0.0012176125
0.0012576225
0.0013050293
0.0013603059
0.0014241158
0.0014972726
0.0015806915
0.0016753789
0.0017824256
0.0019030359
0.0020384825
0.0021901507
0.0023594195
0.0025476081
0.0027560282
0.0029858532
0.0032380315
0.0035131762
0.0038114677
0.0041325422
0.0044753533
0.004838091
0.0052180164
0.0056114807
0.0060143808
0.0064213994
0.0068270215
0.0072256279
0.0076113409
0.0079783717
0.0083226814
0.0086396891
0.0089264437
0.0091804965
0.0094027643
0.0095943036
0.0097570509
0.0098937086
0.010007536
0.010101996
0.010177993
0.010233303
0.010272526
0.010300229
0.0011181312
0.0011354294
0.0011569122
0.0011844285
0.0012190721
0.0012611389
0.0013107244
0.0013681873
0.0014341876
0.0015095603
0.0015952444
0.001692292
0.0018018516
0.001925201
0.002063696
0.0022187145
0.0023917123
0.0025841666
0.0027974796
0.0030329058
0.0032914871
0.0035739359
0.003880526
0.0042109719
0.0045642828
0.0049386752
0.0053313862
0.0057386454
0.0061561918
0.0065785569
0.0070000466
0.0074147431
0.0078164849
0.0081992451
0.0085587444
0.0088900612
0.00919107
0.0094599149
0.009694678
0.0098968166
0.010069125
0.010214418
0.010336025
0.010437375
0.010518863
0.010577361
0.010617974
0.010645832
0.0011171209
0.0011337847
0.0011551976
0.0011836813
0.0012202132
0.001264538
0.0013163975
0.0013760812
0.0014442787
0.0015218518
0.0016097829
0.0017091744
0.0018212429
0.0019472712
0.0020886585
0.002246918
0.002423594
0.0026202322
0.0028383237
0.0030792254
0.0033440811
0.0036337011
0.0039484501
0.0042881199
0.0046517795
0.005037679
0.0054430509
0.0058640076
0.0062960892
0.0067337257
0.0071710671
0.0076018527
0.0080196268
0.0084181466
0.0087928634
0.0091386654
0.0094532845
0.009734613
0.0099824305
0.010196876
0.010379353
0.010534047
0.010664371
0.010773661
0.010861587
0.01092386
0.010966202
0.010994446
0.0011159206
0.0011317685
0.0011530628
0.0011827265
0.001221427
0.0012681561
0.0013223116
0.0013841936
0.0014545437
0.0015342698
0.0016244043
0.0017260569
0.0018404727
0.0019690469
0.0021132554
0.0022746618
0.0024548801
0.0026555448
0.0028782459
0.0031244408
0.0033953693
0.0036919356
0.0040145948
0.0043632185
0.0047369387
0.0051340454
0.0055517898
0.0059861801
0.0064325045
0.0068851582
0.0073381633
0.0077848664
0.0082185266
0.0086327601
0.0090226231
0.0093828914
0.0097111676
0.010005222
0.010264784
0.010491087
0.01068555
0.010850323
0.010990228
0.011108444
0.011203684
0.011270228
0.011314597
0.011343499
0.0011146605
0.0011295839
0.0011507994
0.0011819128
0.0012230296
0.0012722159
0.0013286075
0.0013926062
0.0014650397
0.0015468375
0.0016390075
0.0017427677
0.0018594362
0.0019904412
0.0021373124
0.0023016808
0.0024852403
0.0026897122
0.0029167782
0.0031679911
0.0034446812
0.0037478462
0.004078031
0.0044351874
0.0048185153
0.0052263462
0.0056559744
0.0061033274
0.006563375
0.0070305618
0.0074988134
0.00796103
0.0084102019
0.0088399101
0.0092446523
0.0096192653
0.009961116
0.010267817
0.010539219
0.010776647
0.010982406
0.011158356
0.011308808
0.011437127
0.011540746
0.011612108
0.011658865
0.011688847
0.0011134437
0.0011273864
0.0011486295
0.001181458
0.0012251523
0.0012767448
0.0013352517
0.0014012691
0.0014756731
0.0015593492
0.001653432
0.0017591751
0.0018779401
0.0020112037
0.0021605627
0.0023277115
0.002514417
0.0027224779
0.0029536595
0.0032096065
0.0034917344
0.0038011308
0.0041384284
0.0045036581
0.0048960903
0.0053140962
0.0057550358
0.0062147896
0.0066879377
0.0071690647
0.0076520282
0.0081292361
0.0085934289
0.0090382757
0.0094575255
0.0098462919
0.010201574
0.010520857
0.010804121
0.011052832
0.011269492
0.011457702
0.011619411
0.011758754
0.011871572
0.011948041
0.01199742
0.012029497
0.0011123547
0.0011253426
0.0011467792
0.0011815273
0.0012278398
0.0012816888
0.0013421459
0.001410049
0.0014862061
0.001571614
0.0016674406
0.0017749899
0.0018956779
0.0020310239
0.0021826835
0.0023524021
0.0025420143
0.0027533909
0.0029883783
0.0032487102
0.003535883
0.0038510718
0.0041949948
0.0045677596
0.0049687102
0.0053962549
0.0058478386
0.0063193373
0.0068048714
0.0072992568
0.0077963083
0.0082879072
0.0087665614
0.0092261631
0.0096595014
0.010062217
0.010430773
0.010762583
0.011057764
0.011317898
0.011545739
0.011745009
0.011918699
0.012070026
0.012192969
0.012274741
0.012327048
0.012361771
0.0011113982
0.0011234726
0.001145259
0.0011820311
0.0012308885
0.0012867771
0.0013490098
0.001418576
0.0014963186
0.0015832747
0.0016806642
0.0017898404
0.0019122699
0.0020495075
0.0022032681
0.0023753412
0.0025676231
0.0027820478
0.0030205331
0.0032848965
0.0035767074
0.0038972251
0.0042472506
0.0046269671
0.0050357963
0.0054721804
0.0059336632
0.0064161623
0.00691328
0.0074201419
0.0079305416
0.0084358159
0.0089282535
0.0094021022
0.0098489818
0.010265314
0.010646842
0.010990981
0.011297993
0.01156956
0.011808679
0.012019446
0.01220596
0.012371036
0.012508023
0.012596082
0.012652265
0.012689174
0.0011105715
0.0011218172
0.001144093
0.0011829063
0.0012341602
0.0012918548
0.0013557417
0.0014268426
0.0015060339
0.0015944022
0.0016932232
0.0018038879
0.0019278987
0.0020668353
0.0022224692
0.0023966234
0.0025912547
0.0028083591
0.0030499261
0.0033178587
0.0036138023
0.0039391076
0.0042946687
0.0046807571
0.0050968906
0.005541557
0.0060124184
0.0065054798
0.0070137877
0.0075328286
0.0080563777
0.0085752137
0.0090813967
0.0095696123
0.010030163
0.010460439
0.01085533
0.011212318
0.011531792
0.01181552
0.012066757
0.012290098
0.012491085
0.012694875
0.012913545
0.013025196
0.013088982
0.013132565
0.0011099324
0.0011205266
0.0011433977
0.0011842061
0.0012377026
0.0012969723
0.0013622211
0.0014344948
0.0015146739
0.0016038821
0.0017034428
0.0018148372
0.0019396963
0.0020797316
0.0022369402
0.0024134413
0.0026116039
0.002833905
0.0030828873
0.0033610381
0.0036705464
0.0040132343
0.0043903307
0.0048022667
0.0052485093
0.0057272798
0.0062357683
0.0067692091
0.0073202737
0.0078833087
0.0084511884
0.0090143603
0.0095643355
0.010094585
0.010596995
0.011066852
0.011501411
0.011897734
0.012257255
0.012583295
0.012881044
0.013158771
0.013428198
0.014158086
0.015475997
0.015912438
0.016124192
0.016286056
0.0011093895
0.0011193884
0.0011428041
0.0011857795
0.0012418109
0.0013026724
0.0013689623
0.0014420996
0.001523392
0.0016149082
0.0017195828
0.0018414768
0.0019862154
0.002161053
0.002374919
0.0026380237
0.0029614366
0.0033563556
0.0038333806
0.0044015221
0.0050676926
0.0058357239
0.0067057855
0.007674253
0.00873265
0.0098697522
0.0110681
0.012303111
0.013578799
0.014854411
0.016106431
0.017336969
0.018533891
0.019652899
0.020762344
0.0217812
0.022789722
0.023770698
0.024747131
0.025759971
0.026871065
0.028181475
0.02980473
0.036544362
0.0486465
0.05321053
0.055530737
0.057335914
0.0011089447
0.0011185222
0.0011425025
0.0011904269
0.0012546823
0.0013225439
0.0013976287
0.0014890829
0.001612348
0.0017953736
0.0020815638
0.0025303921
0.0032147515
0.0042164038
0.0056162627
0.0074891771
0.0098959002
0.01288082
0.016471883
0.020679577
0.025505795
0.030940105
0.036961553
0.043541564
0.050630558
0.05818025
0.066091208
0.074208187
0.08271323
0.091259426
0.099684449
0.10812222
0.11651474
0.12441952
0.13262068
0.14019803
0.1479398
0.15546266
0.16268381
0.16985904
0.17822696
0.18843256
0.20172301
0.25035872
0.33858912
0.38618974
0.41546148
0.44210397
0.0011087135
0.0011183401
0.0011443314
0.0012140359
0.0013317399
0.0014674947
0.0016903795
0.0021558083
0.0031286325
0.0049970897
0.0082313918
0.013295883
0.020544462
0.030151999
0.042081096
0.056158786
0.072147263
0.089836673
0.10911339
0.12996839
0.15253753
0.1770434
0.2037609
0.23298802
0.26493351
0.29978575
0.33743545
0.37737765
0.42064402
0.46584461
0.51202466
0.55963138
0.60840427
0.65584607
0.70548693
0.7528962
0.80171522
0.85083131
0.90084151
0.95409353
1.0172827
1.0980049
1.2239928
1.5524183
2.105222
2.5422273
2.9107095
3.2812534
0.0011090266
0.0011208636
0.0011604192
0.0013294732
0.0018194038
0.0026609057
0.0048845355
0.010265598
0.021098872
0.039375995
0.065837275
0.09951872
0.13828416
0.17977381
0.22220237
0.26481089
0.30778263
0.35201849
0.39891509
0.45009703
0.50739932
0.57268814
0.64775822
0.73427259
0.83349578
0.94648049
1.0734045
1.2131617
1.3689719
1.5381302
1.7176673
1.9091789
2.1133781
2.3231724
2.5506296
2.7851153
3.0409056
3.322457
3.64167
4.0173765
4.4735268
5.061769
5.9432784
7.5134451
9.7597954
11.935569
14.061231
16.134204
0.0011114274
0.0011374602
0.0012391984
0.0017985362
0.0046300461
0.01178583
0.031895502
0.073349512
0.1383977
0.2195346
0.30485038
0.38489916
0.45617972
0.51989159
0.57978272
0.6403599
0.70600327
0.78078129
0.86861847
0.97338415
1.099213
1.2504085
1.4312434
1.6458422
1.8977516
2.1902737
2.5253542
2.9027362
3.3309659
3.8086255
4.3312789
4.9049966
5.535522
6.2114815
6.9623593
7.7724448
8.6777318
9.6975329
10.865085
12.233585
13.880627
15.938885
18.724839
22.695839
27.835946
33.110686
38.317213
43.026055
0.0011184815
0.001193638
0.0014851608
0.0033359377
0.018034102
0.063936446
0.16546795
0.31193093
0.46427548
0.591739
0.68877278
0.76412882
0.82987541
0.89583642
0.96977567
1.0578935
1.1657312
1.2988065
1.4630486
1.6650158
1.9122215
2.2128985
2.5755331
3.0086807
3.5204859
4.1191672
4.8115273
5.6014652
6.5062806
7.5306887
8.6694421
9.9339372
11.337348
12.864087
14.557551
16.401304
18.444571
20.724794
23.291285
26.22276
29.631478
33.698182
38.758762
45.204619
53.05583
61.131708
68.812085
75.308367
0.0011359806
0.0013272243
0.0020624555
0.0073999394
0.0655162
0.2302453
0.46784825
0.68325115
0.83423281
0.93282803
1.004974
1.0704958
1.1430778
1.2316215
1.3435431
1.4854198
1.6641087
1.887355
2.1641548
2.5049833
2.9220341
3.4289132
4.039964
4.770039
5.6341316
6.6479464
7.8261439
9.1797664
10.736902
12.51193
14.497021
16.705976
19.158973
21.832732
24.772087
27.961691
31.441361
35.259801
39.461444
44.121823
49.348793
55.312387
62.265712
70.531679
80.240297
90.120684
98.984358
105.88409
0.0011704535
0.0015608998
0.0030835958
0.015367448
0.17017587
0.48070772
0.76680983
0.95174287
1.0620873
1.1382065
1.2088238
1.2902607
1.3935464
1.5263002
1.6964138
1.9118498
2.1818214
2.5172429
2.9311165
3.4386691
4.0576144
4.8079867
5.71123
6.7898576
8.0674709
9.569276
11.320043
13.339982
15.668736
18.330565
21.31168
24.624905
28.295165
32.284145
36.626743
41.304331
46.325512
51.739714
57.564045
63.84362
70.651455
78.110232
86.353922
95.65052
106.28138
116.87629
125.58187
131.52028
0.001214431
0.0018314735
0.0042542311
0.024558299
0.27852845
0.63587814
0.88789868
1.0348523
1.1309894
1.2140274
1.3067001
1.4216393
1.5688576
1.7562824
1.9934925
2.2907396
2.6603047
3.1168172
3.6777992
4.3637269
5.1984683
6.2093324
7.4257058
8.878622
10.601632
12.630807
15.00237
17.746827
20.914824
24.53778
28.593372
33.091525
38.057747
43.430078
49.226362
55.415066
61.957785
68.893139
76.190613
83.84448
91.873828
100.33481
109.23559
118.79186
129.44249
139.68737
147.04466
150.94876
0.0012284272
0.0019321494
0.0046441786
0.026542733
0.28445762
0.59871142
0.80976246
0.94362068
1.0478979
1.1515256
1.2727675
1.4230229
1.6128484
1.8517384
2.1516562
2.5257242
2.9896339
3.5620865
4.2655038
5.1259749
6.1739659
7.4445647
8.9755847
10.807148
12.983557
15.552416
18.562291
22.054484
26.088392
30.698683
35.85467
41.562263
47.84116
54.599079
61.831925
69.482776
77.456904
85.769641
94.325644
103.05547
111.91352
120.88078
129.84498
138.96105
148.80555
157.75043
162.88842
164.12597
0.0011454099
0.0016411835
0.0036311411
0.018859793
0.1933621
0.41878032
0.58492796
0.70640626
0.81378047
0.927318
1.0620032
1.2292102
1.4405205
1.7076409
2.0452003
2.4697021
3.0006668
3.6614555
4.4799741
5.4884398
6.7244123
8.2312129
10.05548
12.246717
14.860461
17.956091
21.595709
25.831092
30.72545
36.314912
42.564136
49.472999
57.045759
65.157769
73.777414
82.80938
92.099499
101.62595
111.2142
120.72626
130.0465
139.07543
147.58636
155.64728
163.95846
170.85393
173.31718
171.71212
0.00093390244
0.0010373047
0.0019752177
0.0091876714
0.091760212
0.21246449
0.31532001
0.40213764
0.48688355
0.57958762
0.69247584
0.83607059
1.0220697
1.263827
1.5782788
1.9854209
2.5092323
3.1792465
4.0303154
5.1027617
6.4431755
8.1046414
10.144411
12.622802
15.607217
19.169014
23.38397
28.315237
34.025791
40.553572
47.863299
55.942607
64.769139
74.190473
84.138094
94.467085
104.96521
115.55874
125.97954
136.02477
145.50482
154.23147
161.86502
168.33696
174.49609
178.8421
178.63029
174.41203
0.00068188373
0.00047486912
0.00073252387
0.0030711385
0.030403405
0.074601033
0.11688882
0.15681415
0.199241
0.24875473
0.31183382
0.39554972
0.5088443
0.66322978
0.87427706
1.1602488
1.5453502
2.0656044
2.7631134
3.688848
4.9030756
6.4748442
8.4796181
10.997437
14.115273
17.922201
22.509309
27.955895
34.325195
41.6513
49.905577
59.054313
69.033436
79.671574
90.84713
102.36266
113.95078
125.46645
136.54634
146.92517
156.33251
164.48299
170.92576
175.39577
178.92898
180.52458
178.15182
171.9977
0.00061765215
0.00020478814
0.00021539458
0.00077400263
0.0075804088
0.019030973
0.030469709
0.041792641
0.054353865
0.06959558
0.089713248
0.11743123
0.15655593
0.21250805
0.29331339
0.40991024
0.57824048
0.82313635
1.1784269
1.6903825
2.4203863
3.4466839
4.8537356
6.7451934
9.2616364
12.542072
16.72764
21.948567
28.298254
35.823467
44.526527
54.353367
65.176647
76.808247
89.036672
101.60928
114.18884
126.51694
138.16084
148.77188
157.99027
165.43255
170.54184
172.80029
173.47579
172.58197
169.06779
162.27898
0.0011913572
0.0002440268
0.00012612234
0.00017539963
0.0013791355
0.0034640666
0.005579167
0.007706218
0.010097655
0.01303188
0.016940767
0.022379147
0.030145837
0.041416246
0.057994657
0.082484246
0.11889375
0.17381601
0.2571495
0.38400522
0.57726046
0.87105647
1.3123663
1.97001
2.9487979
4.3877891
6.4679931
9.4101722
13.441444
18.766896
25.488765
33.657574
43.272873
54.203712
66.146152
78.789186
91.674737
104.36213
116.33131
127.09392
136.1645
143.03968
147.05109
147.37868
145.54518
143.27479
140.38521
135.80351
0.0046800389
0.0009128477
0.00039897914
0.00018726923
0.00028052076
0.00059327807
0.00093838555
0.0013039706
0.0017235198
0.0022374337
0.0029060923
0.0038072487
0.00505231
0.0068011769
0.0092948767
0.012879962
0.01808079
0.025744229
0.037139249
0.054207365
0.079911308
0.1187522
0.17718548
0.26504216
0.39798663
0.598785
0.90073007
1.3516083
2.0130783
2.9643358
4.296938
6.1159227
8.5396859
11.697975
15.645494
20.438865
26.002266
32.148032
38.586779
44.891526
50.544637
54.947306
57.400861
57.095334
54.886687
53.82667
54.372513
58.126719
0.036802643
0.0071673738
0.0031268041
0.0013758833
0.0011816736
0.0020565127
0.0031555033
0.0043961143
0.0058464585
0.0076065968
0.0098109934
0.012629117
0.016296238
0.021120173
0.027528901
0.03610966
0.047663687
0.063337961
0.084698784
0.11392227
0.15398452
0.20893986
0.28420067
0.38702469
0.52743203
0.71833268
0.97653805
1.3245801
1.7827837
2.3784526
3.1485612
4.1131773
5.2835788
6.6979345
8.3174171
10.133534
12.093099
14.070389
15.980083
17.669997
18.970918
19.698091
19.652292
18.546362
16.626552
15.747738
16.348442
19.944635
0.01462228
0.0024878066
0.0011567128
0.00083761963
0.00068897922
0.00061077667
0.00057318499
0.00056865689
0.00059564875
0.00065641174
0.00076819477
0.0010196801
0.0018655
0.0038797396
0.00097153389
0.00023200283
0.00012018916
2.9309889e-06
2.4316849e-05
0.00010813635
0.00025919068
0.00052382353
0.00098506335
0.001798586
0.0032516016
0.0059259881
0.011089827
0.02276757
0.052124622
0.19546016
0.0023951186
0.00040292036
0.00017640598
0.00012682622
0.00010476962
9.3530999e-05
8.8511183e-05
8.8619429e-05
9.3695415e-05
0.00010424492
0.00012393876
0.00017025168
0.00030671388
0.00058591427
0.00015265052
4.1326397e-05
7.4121237e-05
6.0797874e-05
5.9417823e-05
7.2101103e-05
9.8896656e-05
0.00014546386
0.00022700106
0.0003640367
0.00060601793
0.0010435817
0.0018916097
0.0037560033
0.0083611684
0.026948492
0.00092739781
0.00020543733
9.329058e-05
7.2842481e-05
6.768074e-05
6.799027e-05
7.1932503e-05
7.980156e-05
9.232368e-05
0.0001113461
0.00014742731
0.00024223678
0.00040705675
0.00041318956
0.00014663861
8.2442336e-05
0.00048570405
0.00051102518
0.00048094272
0.00049844488
0.00056159806
0.00066551356
0.00084363575
0.0010964917
0.0015077348
0.0021462275
0.0032839402
0.0051886273
0.009707894
0.015570669