/*--------------------------------*- C++ -*----------------------------------*\
| =========                 |                                                 |
| \\      /  F ield         | OpenFOAM: The Open Source CFD Toolbox           |
|  \\    /   O peration     | Version:  2212                                  |
|   \\  /    A nd           | Website:  www.openfoam.com                      |
|    \\/     M anipulation  |                                                 |
\*---------------------------------------------------------------------------*/
FoamFile
{
    version     2.0;
    format      ascii;
    arch        "LSB;label=32;scalar=64";
    class       volScalarField;
    location    "0.064";
    object      rho;
}
// * * * * * * * * * * * * * * * * * * * * * * * * * * * * * * * * * * * * * //

dimensions      [1 -3 0 0 0 0 0];

internalField   nonuniform List<scalar> 
18080
(
1.4288042
1.4287992
1.4287755
1.4287373
1.4286827
1.4286077
1.4285084
1.4283803
1.428218
1.4280149
1.4277627
1.4274515
1.427069
1.4266004
1.4260277
1.425329
1.4244784
1.4234451
1.4221927
1.420679
1.4188558
1.4166694
1.4140612
1.41097
1.4073337
1.4030936
1.3981989
1.3926116
1.386315
1.3793166
1.3716549
1.3634043
1.3546763
1.3456146
1.3363951
1.327211
1.3182648
1.309752
1.3018452
1.2946815
1.2883519
1.2828959
1.2783034
1.2745211
1.2714644
1.2690293
1.2671109
1.2656027
1.4288043
1.4287993
1.4287755
1.4287373
1.4286826
1.4286075
1.428508
1.4283797
1.4282173
1.4280139
1.4277614
1.4274499
1.427067
1.426598
1.4260247
1.4253256
1.4244745
1.4234406
1.4221877
1.4206734
1.4188498
1.416663
1.4140546
1.4109632
1.4073267
1.4030864
1.3981912
1.3926033
1.3863055
1.3793052
1.3716406
1.3633862
1.3546533
1.3455855
1.3363589
1.3271669
1.3182124
1.3096911
1.3017761
1.2946048
1.2882683
1.2828064
1.2782088
1.2744224
1.2713624
1.2689248
1.2670047
1.2654945
1.4288046
1.4287994
1.4287755
1.4287372
1.4286825
1.4286073
1.4285076
1.4283792
1.4282164
1.4280127
1.4277599
1.4274479
1.4270646
1.426595
1.4260211
1.4253212
1.4244694
1.4234347
1.4221808
1.4206656
1.418841
1.4166531
1.4140434
1.4109505
1.4073125
1.4030703
1.3981728
1.392582
1.3862807
1.379276
1.371606
1.3633451
1.3546045
1.345528
1.3362918
1.3270896
1.3181245
1.3095928
1.3016679
1.2944876
1.2881433
1.2826749
1.2780722
1.2742819
1.2712191
1.2687798
1.2668587
1.2653473
1.4288049
1.4287996
1.4287757
1.4287374
1.4286825
1.4286072
1.4285074
1.4283787
1.4282157
1.4280117
1.4277584
1.427446
1.4270621
1.4265919
1.4260174
1.4253168
1.4244642
1.4234287
1.422174
1.420658
1.4188325
1.4166437
1.4140332
1.4109395
1.4073004
1.403057
1.398158
1.3925651
1.3862609
1.3792522
1.3715771
1.3633095
1.3545607
1.3454745
1.3362273
1.3270131
1.3180355
1.3094912
1.3015543
1.294363
1.2880092
1.282533
1.2779243
1.2741296
1.271064
1.268623
1.2667015
1.2651893
1.4288055
1.4288
1.4287761
1.4287377
1.4286828
1.4286073
1.4285074
1.4283785
1.4282152
1.4280109
1.4277573
1.4274444
1.42706
1.4265892
1.4260141
1.4253129
1.4244595
1.4234233
1.4221679
1.4206511
1.4188249
1.4166354
1.4140242
1.4109297
1.4072896
1.403045
1.3981443
1.392549
1.3862413
1.3792279
1.3715465
1.3632709
1.3545121
1.3454141
1.3361535
1.3269247
1.3179319
1.3093723
1.3014208
1.2942163
1.2878513
1.2823662
1.277751
1.2739523
1.2708845
1.2684433
1.2665229
1.2650117
1.4288064
1.4288008
1.4287768
1.4287384
1.4286834
1.4286079
1.4285078
1.4283787
1.4282152
1.4280106
1.4277567
1.4274434
1.4270585
1.4265872
1.4260116
1.4253097
1.4244558
1.423419
1.4221631
1.4206458
1.4188192
1.4166294
1.4140179
1.410923
1.4072826
1.4030372
1.3981352
1.3925378
1.3862268
1.3792086
1.3715203
1.3632357
1.3544656
1.3453538
1.3360774
1.326831
1.3178198
1.3092416
1.3012725
1.2940521
1.2876737
1.2821782
1.2775559
1.2737532
1.2706844
1.2682442
1.2663268
1.2648186
1.4288079
1.4288021
1.428778
1.4287396
1.4286847
1.4286091
1.4285089
1.4283797
1.428216
1.4280112
1.427757
1.4274433
1.4270581
1.4265864
1.4260103
1.4253081
1.4244538
1.4234167
1.4221605
1.4206431
1.4188164
1.4166267
1.4140154
1.4109207
1.4072803
1.4030345
1.3981315
1.3925321
1.3862175
1.3791937
1.3714974
1.363202
1.354418
1.3452893
1.3359933
1.3267252
1.317691
1.3090897
1.3010985
1.2938584
1.2874635
1.2819557
1.2773255
1.2735191
1.2704504
1.2680135
1.2661017
1.2645995
1.4288102
1.4288043
1.4287801
1.4287418
1.4286868
1.4286113
1.4285111
1.4283819
1.4282181
1.4280131
1.4277587
1.4274449
1.4270594
1.4265875
1.4260112
1.4253088
1.4244544
1.4234173
1.4221613
1.4206443
1.4188182
1.4166292
1.4140187
1.4109249
1.4072851
1.4030396
1.398136
1.3925346
1.3862162
1.379186
1.3714803
1.3631719
1.354371
1.3452217
1.3359014
1.3266063
1.3175435
1.3089134
1.3008947
1.2936301
1.2872151
1.2816927
1.2770537
1.2732444
1.2701777
1.2677471
1.2658444
1.2643522
1.4288137
1.4288077
1.4287836
1.4287453
1.4286905
1.4286151
1.428515
1.4283858
1.4282221
1.4280172
1.4277627
1.4274489
1.4270634
1.4265915
1.4260153
1.4253131
1.4244591
1.4234225
1.4221672
1.4206512
1.4188264
1.416639
1.4140302
1.4109382
1.4072999
1.4030553
1.3981515
1.3925482
1.3862255
1.3791876
1.3714704
1.3631459
1.354324
1.3451487
1.3357981
1.3264691
1.3173702
1.3087037
1.3006505
1.2933552
1.2869154
1.2813754
1.2767267
1.2729153
1.2698535
1.267433
1.2655443
1.2640673
1.4288191
1.428813
1.4287889
1.4287508
1.4286963
1.4286212
1.4285214
1.4283925
1.428229
1.4280243
1.4277701
1.4274565
1.4270713
1.4265998
1.4260242
1.4253227
1.4244696
1.4234343
1.4221806
1.4206666
1.4188441
1.4166593
1.4140534
1.4109641
1.4073284
1.4030855
1.3981819
1.3925766
1.3862487
1.3792016
1.37147
1.3631255
1.3542773
1.3450694
1.3356806
1.3263089
1.3171646
1.3084525
1.3003559
1.2930224
1.2865521
1.280991
1.2763317
1.2725199
1.2694667
1.2670619
1.2651936
1.2637387
1.4288271
1.428821
1.4287971
1.4287593
1.4287052
1.4286306
1.4285314
1.428403
1.4282401
1.4280359
1.4277823
1.4274693
1.4270849
1.4266144
1.4260398
1.4253398
1.4244885
1.4234554
1.4222044
1.4206935
1.4188746
1.4166939
1.4140922
1.4110072
1.4073752
1.4031348
1.3982319
1.3926243
1.3862901
1.3792313
1.3714818
1.363112
1.3542307
1.3449819
1.335545
1.3261196
1.3169184
1.3081489
1.2999981
1.2926172
1.2861094
1.2805233
1.2758526
1.272043
1.2690036
1.2666217
1.2647822
1.263358
1.4288388
1.4288328
1.4288092
1.4287719
1.4287185
1.4286447
1.4285464
1.4284189
1.4282569
1.4280538
1.4278012
1.4274894
1.4271064
1.4266375
1.4260649
1.4253673
1.4245188
1.4234892
1.4222422
1.420736
1.4189224
1.4167474
1.4141517
1.4110725
1.4074456
1.4032089
1.398307
1.3926966
1.3863544
1.379281
1.3715088
1.3631073
1.3541844
1.3448842
1.3353873
1.3258949
1.3166227
1.3077819
1.299564
1.2921247
1.2855714
1.2799559
1.2752735
1.2714696
1.2684511
1.2661015
1.2643015
1.2629189
1.4288554
1.4288495
1.4288264
1.4287899
1.4287376
1.4286651
1.428568
1.428442
1.4282815
1.4280799
1.427829
1.4275191
1.4271382
1.4266719
1.4261023
1.4254082
1.424564
1.4235393
1.4222981
1.4207984
1.4189921
1.4168249
1.4142373
1.4111659
1.4075457
1.4033136
1.398413
1.3927991
1.3864468
1.379355
1.3715544
1.3631132
1.3541385
1.3447747
1.3352034
1.3256282
1.3162685
1.3073401
1.29904
1.2915296
1.2849217
1.2792721
1.2745783
1.2707852
1.2677968
1.2654916
1.2637445
1.2624169
1.4288782
1.4288725
1.4288501
1.4288148
1.428764
1.4286932
1.4285981
1.428474
1.4283157
1.4281163
1.4278679
1.4275607
1.4271829
1.4267202
1.4261548
1.4254657
1.4246274
1.4236095
1.4223761
1.4208852
1.4190885
1.4169315
1.4143543
1.4112928
1.4076811
1.4034549
1.3985558
1.3929374
1.3865724
1.3794576
1.3716219
1.3631317
1.3540936
1.3446519
1.3349899
1.3253138
1.3158478
1.3068133
1.2984139
1.2908183
1.2841458
1.2784573
1.2737532
1.2699779
1.2670312
1.2647856
1.2631079
1.2618513
1.4289081
1.4289027
1.4288814
1.4288476
1.4287989
1.4287305
1.428638
1.4285167
1.4283612
1.4281648
1.4279197
1.4276162
1.4272426
1.4267847
1.426225
1.4255426
1.424712
1.4237029
1.4224796
1.4209999
1.4192154
1.4170713
1.4145071
1.4114579
1.4078567
1.4036374
1.3987402
1.393116
1.3867353
1.3795926
1.3717142
1.363165
1.3540505
1.3445151
1.3347444
1.3249478
1.3153549
1.306194
1.2976768
1.2899805
1.2832327
1.2775007
1.2727884
1.2690396
1.2661494
1.2639816
1.2623929
1.2612261
1.4289455
1.4289405
1.4289206
1.4288889
1.4288429
1.4287777
1.4286886
1.4285709
1.428419
1.4282265
1.4279856
1.4276867
1.4273185
1.4268667
1.4263142
1.42564
1.424819
1.423821
1.4226101
1.4211442
1.4193747
1.4172463
1.4146979
1.4116636
1.4080748
1.403864
1.3989687
1.3933375
1.3869381
1.3797621
1.3718334
1.3632148
1.3540105
1.3443654
1.3344674
1.3245298
1.3147886
1.3054801
1.2968256
1.2890125
1.2821782
1.2763981
1.2716804
1.2679689
1.2651523
1.263084
1.2616073
1.2605517
1.42899
1.4289855
1.4289674
1.4289384
1.4288959
1.4288346
1.4287497
1.4286363
1.4284888
1.428301
1.4280651
1.4277718
1.42741
1.4269656
1.4264216
1.4257575
1.424948
1.4239632
1.4227671
1.4213176
1.4195657
1.4174558
1.4149259
1.4119089
1.4083348
1.4041339
1.3992412
1.3936022
1.3871813
1.379967
1.3719801
1.3632815
1.3539742
1.3442037
1.3341603
1.3240618
1.3141514
1.3046743
1.295863
1.2879168
1.2809847
1.2751517
1.2704323
1.2667701
1.264047
1.2621032
1.2607643
1.2598433
1.42904
1.4290361
1.4290202
1.4289945
1.4289562
1.4288998
1.4288199
1.4287115
1.428569
1.4283864
1.4281562
1.4278694
1.4275148
1.4270788
1.4265447
1.425892
1.4250958
1.424126
1.4229469
1.421516
1.4197842
1.4176955
1.4151868
1.412189
1.4086307
1.4044401
1.3995495
1.3939013
1.3874577
1.3802028
1.3721526
1.3633657
1.3539436
1.3440333
1.3338279
1.3235501
1.3134513
1.3037864
1.2948002
1.2867054
1.2796645
1.2737741
1.2690564
1.2654566
1.2628486
1.261057
1.2598844
1.2591226
1.4290931
1.4290898
1.4290766
1.4290548
1.4290215
1.4289707
1.4288965
1.4287936
1.4286566
1.4284796
1.4282555
1.4279756
1.4276289
1.4272022
1.4266788
1.4260386
1.4252569
1.4243036
1.423143
1.4217329
1.420023
1.4179563
1.4154691
1.4124921
1.4089513
1.4047723
1.3998845
1.3942268
1.3877571
1.3804569
1.3723407
1.3634618
1.3539187
1.3438593
1.3334794
1.3230078
1.3127044
1.3028352
1.2936583
1.2854012
1.278241
1.2722883
1.2675754
1.2640507
1.2615806
1.2599705
1.2589941
1.2584157
1.4291461
1.4291436
1.4291334
1.4291161
1.4290887
1.4290442
1.4289762
1.4288789
1.4287475
1.4285762
1.4283584
1.4280856
1.4277472
1.42733
1.426818
1.4261909
1.4254244
1.4244886
1.4233476
1.4219581
1.4202708
1.418228
1.4157653
1.4128115
1.4092909
1.4051263
1.4002436
1.3945779
1.3880831
1.3807372
1.3725508
1.3635739
1.3539065
1.3436943
1.3331343
1.3224607
1.3119421
1.3018561
1.2924758
1.2840444
1.2767551
1.270734
1.2660266
1.2625873
1.2602763
1.2588771
1.2581263
1.257753
1.4291961
1.4291945
1.4291876
1.4291754
1.4291544
1.429117
1.4290554
1.4289638
1.4288376
1.4286719
1.4284602
1.4281944
1.4278641
1.4274567
1.4269559
1.4263421
1.425591
1.4246725
1.4235507
1.4221831
1.4205197
1.4185025
1.4160657
1.4131369
1.4096382
1.4054898
1.4006142
1.3949425
1.3884244
1.3810348
1.3727796
1.3637047
1.3539089
1.3435402
1.3327994
1.3219226
1.3111859
1.3008776
1.2912863
1.2826717
1.2752444
1.2691479
1.2644437
1.2610965
1.258963
1.257803
1.2573059
1.257155
1.4292409
1.4292401
1.4292367
1.42923
1.4292162
1.4291863
1.429131
1.4290447
1.4289233
1.4287627
1.4285567
1.4282976
1.4279752
1.4275769
1.4270872
1.4264861
1.4257496
1.4248481
1.423746
1.4224006
1.4207614
1.4187698
1.4163593
1.413456
1.4099802
1.4058494
1.4009829
1.3953076
1.3887689
1.3813389
1.3730192
1.36385
1.3539291
1.343406
1.3324829
1.3214042
1.3104536
1.2999245
1.2901214
1.2813202
1.2737484
1.267569
1.2628628
1.2596097
1.257668
1.2567734
1.2565551
1.256637
1.4292789
1.429279
1.4292791
1.429278
1.4292722
1.4292501
1.4292009
1.4291191
1.4290019
1.4288458
1.428645
1.4283919
1.4280767
1.4276871
1.4272073
1.4266182
1.4258959
1.4250111
1.423928
1.4226038
1.4209879
1.4190213
1.4166366
1.4137587
1.4103061
1.4061939
1.4013383
1.3956621
1.3891059
1.3816404
1.3732625
1.3640054
1.3539664
1.3432979
1.3321988
1.3209222
1.3097588
1.2990181
1.2890094
1.2800233
1.2723044
1.2660353
1.2613191
1.2581563
1.256415
1.2558092
1.2558897
1.2562054
1.4293099
1.4293107
1.429314
1.4293186
1.4293216
1.4293074
1.4292635
1.4291853
1.4290717
1.4289194
1.4287232
1.4284754
1.4281666
1.4277846
1.4273143
1.4267365
1.4260274
1.425158
1.4240925
1.4227882
1.4211941
1.419251
1.4168908
1.4140373
1.4106076
1.4065143
1.4016709
1.3959963
1.3894257
1.3819305
1.3735019
1.3641652
1.3540178
1.3432166
1.3319522
1.3204912
1.3091255
1.2981724
1.2879652
1.2788035
1.2709383
1.2645747
1.2598394
1.256758
1.2552196
1.2549229
1.2553162
1.255857
1.4293344
1.4293358
1.4293417
1.4293518
1.4293641
1.4293577
1.4293182
1.4292429
1.429132
1.4289831
1.4287905
1.4285474
1.4282443
1.4278694
1.4274076
1.4268399
1.4261427
1.4252871
1.4242376
1.4229513
1.4213771
1.4194556
1.4171181
1.4142875
1.4108795
1.4068048
1.4019743
1.3963035
1.3897214
1.3822022
1.3737314
1.3643241
1.3540797
1.3431613
1.3317444
1.3201166
1.3085633
1.2974127
1.287014
1.2776793
1.2696753
1.2632142
1.2584503
1.255437
1.2540973
1.2541268
1.2548397
1.2555874
1.4293532
1.4293549
1.4293627
1.4293779
1.4294004
1.4294012
1.4293649
1.4292918
1.4291832
1.4290368
1.4288475
1.4286084
1.4283104
1.4279416
1.4274872
1.4269284
1.4262417
1.4253983
1.4243628
1.4230925
1.4215362
1.419634
1.417317
1.4145074
1.4111196
1.4070625
1.4022451
1.3965799
1.3899887
1.3824511
1.3739461
1.3644776
1.354148
1.3431295
1.3315738
1.3197996
1.3080756
1.2967442
1.2861705
1.2766712
1.2685288
1.261971
1.2571699
1.2542086
1.2530572
1.2534276
1.254459
1.2553862
1.4293674
1.4293693
1.4293781
1.4293979
1.429431
1.4294381
1.4294043
1.4293327
1.4292258
1.4290815
1.428895
1.4286594
1.4283657
1.4280022
1.4275541
1.4270029
1.4263252
1.4254924
1.4244692
1.4232128
1.421672
1.4197869
1.4174882
1.4146972
1.4113277
1.407287
1.4024823
1.3968242
1.3902257
1.3826747
1.374143
1.3646226
1.3542193
1.3431181
1.331437
1.3195383
1.3076612
1.2961679
1.285437
1.2757875
1.267512
1.2608608
1.2560153
1.2530881
1.252109
1.2528326
1.2541725
1.2552439
1.4293782
1.42938
1.429389
1.4294129
1.4294568
1.4294692
1.4294369
1.4293663
1.4292608
1.4291184
1.4289341
1.4287014
1.4284113
1.4280522
1.4276096
1.4270648
1.4263948
1.4255711
1.4245583
1.4233139
1.4217866
1.4199162
1.4176334
1.4148589
1.4115058
1.4074799
1.4026873
1.3970371
1.3904328
1.3828727
1.3743209
1.3647569
1.3542909
1.3431234
1.33133
1.3193288
1.3073157
1.2956801
1.2848108
1.275026
1.2666296
1.2598831
1.2549893
1.2520787
1.2512519
1.2523383
1.253968
1.2551422
1.4293863
1.4293879
1.4293964
1.4294238
1.4294784
1.429495
1.4294635
1.4293938
1.4292894
1.4291484
1.428966
1.4287356
1.4284486
1.4280933
1.4276552
1.4271158
1.4264523
1.4256362
1.4246322
1.423398
1.4218821
1.4200245
1.4177553
1.4149952
1.4116565
1.4076439
1.4028624
1.3972207
1.3906118
1.3830461
1.3744796
1.3648798
1.3543609
1.3431421
1.3312487
1.3191654
1.3070327
1.2952743
1.2842849
1.2743801
1.2658753
1.2590398
1.2540964
1.2511864
1.2504893
1.2519445
1.2538375
1.2550708
1.4293925
1.4293938
1.4294012
1.4294317
1.4294965
1.4295161
1.4294852
1.4294161
1.4293126
1.4291727
1.4289918
1.4287634
1.4284789
1.4281266
1.4276923
1.4271575
1.4264994
1.4256896
1.4246932
1.4234676
1.4219613
1.4201144
1.417857
1.4151092
1.4117831
1.4077822
1.4030108
1.3973778
1.3907653
1.3831968
1.3746201
1.3649913
1.3544283
1.3431712
1.3311892
1.3190424
1.306805
1.2949425
1.2838504
1.2738407
1.2652403
1.2583234
1.2533331
1.2504098
1.2498188
1.2516438
1.2537677
1.2550189
1.4293972
1.4293982
1.4294043
1.4294373
1.4295115
1.4295332
1.4295026
1.429434
1.4293312
1.4291922
1.4290125
1.4287858
1.4285034
1.4281536
1.4277225
1.4271914
1.4265377
1.4257333
1.424743
1.4235245
1.4220264
1.4201886
1.4179411
1.4152038
1.4118886
1.4078981
1.4031357
1.3975113
1.3908962
1.3833271
1.3747437
1.3650919
1.3544924
1.3432078
1.3311482
1.3189537
1.3066256
1.294676
1.2834971
1.2733969
1.2647135
1.2577245
1.2526874
1.2497424
1.2492344
1.2514248
1.253745
1.2549794
1.4294008
1.4294015
1.4294061
1.4294413
1.4295238
1.429547
1.4295165
1.4294483
1.429346
1.4292077
1.4290291
1.4288036
1.4285228
1.428175
1.4277463
1.427218
1.4265678
1.4257674
1.4247818
1.4235688
1.4220769
1.420246
1.4180062
1.4152771
1.4119707
1.4079884
1.4032336
1.3976171
1.3909998
1.3834315
1.3748441
1.3651746
1.3545457
1.3432426
1.3311162
1.3188877
1.3064822
1.2944614
1.2832103
1.2730333
1.2642789
1.2572265
1.2521467
1.2491679
1.2487072
1.2512439
1.2537195
1.2549036
1.4294037
1.429404
1.4294072
1.429444
1.4295338
1.4295577
1.4295273
1.4294592
1.4293572
1.4292192
1.4290409
1.4288159
1.4285356
1.4281881
1.4277596
1.4272315
1.4265814
1.425781
1.4247955
1.4235829
1.4220913
1.420261
1.4180221
1.4152938
1.4119882
1.4080062
1.4032505
1.3976336
1.3910063
1.383431
1.3748328
1.3651404
1.354478
1.3431535
1.330959
1.318696
1.3062128
1.2941213
1.2827971
1.2725416
1.2637119
1.2565855
1.2514447
1.2483913
1.2478956
1.2507115
1.2532773
1.2543548
1.4294058
1.429406
1.4294077
1.4294454
1.4295409
1.4295648
1.4295339
1.4294652
1.429362
1.4292223
1.4290414
1.4288127
1.4285278
1.4281748
1.4277403
1.4272058
1.4265493
1.4257425
1.4247506
1.4235315
1.422033
1.4201951
1.4179473
1.4152084
1.41189
1.4078921
1.4031168
1.3974781
1.3908175
1.3832088
1.3745713
1.3648268
1.3541004
1.3427223
1.3304299
1.3181006
1.3055096
1.2933176
1.2818884
1.2715198
1.2625698
1.2553147
1.2500256
1.2467675
1.2460347
1.248911
1.2513511
1.2521161
1.4294076
1.4294076
1.4294074
1.4294443
1.4295429
1.429565
1.4295313
1.4294582
1.4293486
1.4292006
1.4290105
1.4287726
1.4284798
1.4281203
1.4276806
1.4271416
1.4264805
1.4256685
1.4246698
1.4234419
1.4219321
1.4200795
1.4178132
1.4150511
1.4117042
1.4076713
1.4028537
1.3971663
1.3904424
1.3827646
1.3740472
1.3642063
1.3533669
1.3418785
1.3294297
1.3169648
1.3041914
1.291811
1.280171
1.2695596
1.2603449
1.2527899
1.2471357
1.2434434
1.2423119
1.245059
1.247183
1.2475224
1.4294093
1.4294088
1.4294048
1.4294372
1.4295345
1.4295506
1.4295081
1.4294244
1.4293047
1.4291498
1.4289568
1.4287189
1.4284268
1.4280673
1.4276261
1.4270836
1.4264167
1.4255963
1.4245866
1.4233443
1.4218161
1.4199405
1.4176458
1.4148487
1.4114592
1.4073748
1.4024953
1.3967355
1.3899214
1.3821419
1.3733066
1.363326
1.3523248
1.3406673
1.328002
1.3153286
1.3022982
1.2896506
1.2777231
1.2668038
1.2572637
1.2493659
1.243366
1.2393682
1.2380209
1.240799
1.2428026
1.2429887
1.4294119
1.4294088
1.429396
1.4294187
1.42951
1.4295156
1.4294646
1.4293778
1.4292609
1.429111
1.4289219
1.4286854
1.4283925
1.4280302
1.4275842
1.4270349
1.4263592
1.4255273
1.4245031
1.4232428
1.4216923
1.4197893
1.417461
1.4146232
1.4111846
1.407041
1.4020907
1.3962478
1.3893323
1.3814377
1.3724695
1.3623342
1.3511573
1.3393152
1.3264278
1.3135395
1.3002606
1.2873648
1.2751844
1.2640124
1.2542306
1.2461086
1.2399279
1.2358029
1.2344292
1.2373965
1.2394627
1.2396929
1.4294166
1.429405
1.4293767
1.4293876
1.4294733
1.4294761
1.4294301
1.4293512
1.4292398
1.4290921
1.4289026
1.428664
1.4283674
1.428
1.4275476
1.4269901
1.4263042
1.4254599
1.4244204
1.4231414
1.4215681
1.4196374
1.4172756
1.4143974
1.4109102
1.4067085
1.4016888
1.3957645
1.3887507
1.3807447
1.3716492
1.3613682
1.3500289
1.3380174
1.3249339
1.3118588
1.298373
1.2852793
1.2729079
1.2615585
1.2516242
1.2433826
1.2371346
1.2329937
1.2316916
1.2349119
1.237123
1.2374877
1.4294244
1.4293937
1.4293473
1.4293524
1.4294425
1.4294546
1.4294167
1.4293415
1.4292305
1.4290812
1.428889
1.4286468
1.4283457
1.4279727
1.4275135
1.4269478
1.426252
1.4253957
1.4243418
1.4230454
1.4214511
1.419495
1.4171025
1.4141872
1.4106557
1.4064009
1.4013181
1.3953196
1.388217
1.3801111
1.3709024
1.3604936
1.3490134
1.3368572
1.3236102
1.3103826
1.2967333
1.2834896
1.2709817
1.2595155
1.2494942
1.2412017
1.2349521
1.2308548
1.2296728
1.2331644
1.2355531
1.2360833
1.4294338
1.4293747
1.4293171
1.4293277
1.4294301
1.4294494
1.4294135
1.4293375
1.4292245
1.4290727
1.4288773
1.4286313
1.4283257
1.4279474
1.4274819
1.4269087
1.426204
1.4253372
1.4242706
1.4229589
1.421346
1.4193675
1.4169479
1.4140001
1.4104296
1.406128
1.4009896
1.3949259
1.387746
1.3795535
1.3702476
1.3597297
1.3481312
1.3358545
1.3224745
1.3091252
1.2953497
1.2819952
1.269393
1.2578548
1.2477914
1.2394922
1.2332791
1.2292583
1.2282206
1.2319794
1.2345469
1.2352374
1.4294421
1.4293539
1.4292971
1.429319
1.42943
1.4294497
1.4294124
1.4293343
1.4292191
1.4290647
1.4288663
1.4286168
1.4283073
1.4279243
1.4274533
1.4268738
1.4261614
1.4252855
1.4242079
1.422883
1.4212541
1.4192562
1.4168133
1.4138373
1.410233
1.405891
1.4007048
1.3945849
1.3873389
1.3790731
1.3696851
1.3590758
1.3473794
1.3350039
1.321517
1.3080721
1.2942003
1.2807655
1.2681009
1.2565225
1.2464475
1.2381694
1.2320149
1.2280881
1.2272045
1.2312123
1.2339388
1.23476
1.4294469
1.4293392
1.4292902
1.4293201
1.4294327
1.4294502
1.4294108
1.4293309
1.4292136
1.429057
1.4288561
1.4286038
1.4282909
1.4279039
1.4274283
1.4268432
1.4261243
1.4252405
1.4241534
1.4228171
1.4211744
1.4191599
1.4166969
1.4136968
1.4100635
1.4056871
1.4004601
1.3942923
1.3869907
1.3786635
1.3692069
1.3585218
1.3467452
1.3342893
1.3207173
1.3071979
1.2932535
1.279762
1.2670583
1.2554623
1.2453958
1.2371556
1.2310717
1.2272469
1.2265184
1.2307479
1.2336012
1.2345064
1.4294481
1.4293337
1.4292909
1.4293233
1.4294347
1.42945
1.429409
1.4293275
1.4292088
1.4290504
1.4288475
1.4285927
1.428277
1.4278868
1.4274072
1.4268173
1.4260927
1.4252019
1.4241066
1.4227602
1.4211054
1.4190762
1.4165957
1.4135747
1.4099165
1.4055105
1.4002487
1.3940405
1.3866923
1.378314
1.3688005
1.3580528
1.3462112
1.3336903
1.320051
1.3064742
1.2924757
1.2789455
1.26622
1.2546218
1.2445768
1.2363847
1.2303771
1.2266565
1.2260786
1.2304983
1.2334409
1.234372
1.4294474
1.4293344
1.4292931
1.4293256
1.4294358
1.4294499
1.4294077
1.4293253
1.4292054
1.4290458
1.4288415
1.428585
1.4282672
1.4278743
1.4273914
1.4267975
1.4260677
1.4251706
1.4240675
1.4227117
1.4210456
1.4190031
1.4165068
1.4134671
1.4097867
1.4053549
1.4000632
1.3938203
1.3864326
1.3780114
1.3684505
1.3576517
1.3457577
1.3331844
1.3194927
1.3058721
1.2918343
1.2782796
1.2655452
1.253956
1.2439416
1.2358035
1.2298742
1.2262546
1.2258195
1.2303973
1.2333894
1.2342805
1.4294464
1.4293366
1.4292946
1.4293267
1.4294363
1.4294499
1.4294074
1.4293244
1.429204
1.4290438
1.4288388
1.4285813
1.4282622
1.4278676
1.4273824
1.4267855
1.4260519
1.4251498
1.4240403
1.4226763
1.421
1.4189448
1.4164327
1.4133736
1.4096702
1.4052113
1.3998884
1.3936103
1.3861854
1.3777249
1.3681212
1.3572771
1.3453387
1.3327222
1.3189895
1.3053364
1.2912712
1.2777039
1.2649705
1.2533985
1.24342
1.2353394
1.229489
1.22597
1.2256693
1.2303677
1.2333786
1.2341712
1.4294458
1.4293381
1.4292953
1.4293271
1.4294365
1.42945
1.4294073
1.4293243
1.4292038
1.4290434
1.4288381
1.4285803
1.4282608
1.4278655
1.4273796
1.4267814
1.4260461
1.4251416
1.4240287
1.4226599
1.4209769
1.4189126
1.4163884
1.4133137
1.4095904
1.4051067
1.3997535
1.3934394
1.3859729
1.3774667
1.3678115
1.3569119
1.3449183
1.3322466
1.3184628
1.304767
1.2906671
1.2770798
1.2643433
1.2527852
1.2428407
1.2348157
1.2290423
1.2256201
1.2254473
1.2302375
1.233234
1.2339882
1.4294456
1.4293386
1.4292954
1.4293272
1.4294366
1.42945
1.4294074
1.4293243
1.4292038
1.4290434
1.4288381
1.4285803
1.4282607
1.4278654
1.4273794
1.426781
1.4260454
1.4251404
1.4240267
1.4226567
1.4209718
1.4189045
1.4163761
1.4132953
1.4095634
1.4050676
1.3996978
1.3933614
1.3858659
1.3773236
1.3676247
1.356675
1.3446266
1.3318958
1.3180529
1.3043015
1.2901514
1.2765276
1.263768
1.2522043
1.2422746
1.2342876
1.2285757
1.2252366
1.2251786
1.2300265
1.2329694
1.2341089
1.4294455
1.4293387
1.4292955
1.4293272
1.4294366
1.4294501
1.4294074
1.4293244
1.4292039
1.4290435
1.4288383
1.4285805
1.428261
1.4278658
1.4273798
1.4267816
1.4260461
1.4251413
1.4240278
1.422658
1.4209733
1.4189062
1.4163777
1.4132967
1.4095641
1.4050668
1.3996942
1.3933532
1.3858507
1.3772982
1.3675859
1.3566196
1.344551
1.3317961
1.3179262
1.3041461
1.2899665
1.2763158
1.2635332
1.2519532
1.2420164
1.2340344
1.2283409
1.2250372
1.2250296
1.2298912
1.2327934
1.2356969
1.1960918
1.1960857
1.1960877
1.196088
1.196088
1.196088
1.1960877
1.1960869
1.1960856
1.196084
1.196082
1.1960789
1.1960739
1.196069
1.1960087
1.1960705
1.196117
1.196123
1.1961265
1.1961244
1.1961195
1.196115
1.1961079
1.196095
1.1960846
1.1960763
1.1960534
1.1960353
1.196003
1.1960335
1.1960929
1.1960858
1.1960877
1.196088
1.196088
1.196088
1.1960877
1.1960869
1.1960857
1.1960841
1.196082
1.1960789
1.196074
1.1960692
1.1960087
1.19607
1.1961164
1.1961227
1.1961263
1.1961243
1.1961195
1.1961152
1.1961082
1.1960956
1.1960854
1.1960767
1.1960545
1.1960375
1.1960054
1.1960306
1.1960946
1.196086
1.1960877
1.196088
1.196088
1.1960879
1.1960877
1.196087
1.1960857
1.1960841
1.1960821
1.196079
1.1960742
1.1960695
1.1960087
1.1960691
1.1961154
1.1961219
1.1961259
1.1961241
1.1961196
1.1961155
1.1961087
1.1960964
1.1960867
1.1960779
1.1960562
1.1960398
1.1960095
1.1960366
1.1960966
1.1960867
1.1960879
1.196088
1.1960879
1.1960879
1.1960877
1.196087
1.1960858
1.1960843
1.1960823
1.1960793
1.1960745
1.1960703
1.1960088
1.1960677
1.1961134
1.1961205
1.196125
1.1961237
1.1961197
1.1961158
1.1961095
1.1960976
1.1960884
1.1960799
1.196059
1.1960433
1.1960147
1.1960416
1.1960986
1.1960878
1.1960883
1.1960882
1.196088
1.1960879
1.1960878
1.1960871
1.196086
1.1960845
1.1960825
1.1960796
1.1960751
1.1960714
1.1960092
1.1960656
1.1961105
1.1961184
1.1961236
1.196123
1.1961196
1.1961162
1.1961105
1.1960991
1.1960904
1.1960824
1.1960622
1.1960468
1.1960189
1.1960434
1.1961005
1.1960894
1.1960891
1.1960885
1.1960881
1.196088
1.1960879
1.1960873
1.1960862
1.1960848
1.196083
1.1960802
1.196076
1.1960731
1.1960098
1.1960629
1.1961065
1.1961155
1.1961216
1.1961218
1.1961192
1.1961164
1.1961114
1.1961006
1.1960923
1.1960848
1.1960652
1.1960497
1.1960221
1.1960432
1.1961023
1.1960914
1.1960904
1.1960893
1.1960886
1.1960883
1.1960882
1.1960876
1.1960866
1.1960853
1.1960836
1.196081
1.1960773
1.1960751
1.1960109
1.1960599
1.1961018
1.196112
1.1961191
1.1961202
1.1961184
1.1961163
1.196112
1.1961017
1.1960936
1.1960865
1.1960672
1.1960515
1.1960245
1.1960419
1.1961039
1.1960936
1.1960922
1.1960905
1.1960894
1.196089
1.1960887
1.1960882
1.1960872
1.196086
1.1960844
1.1960822
1.1960788
1.1960775
1.1960127
1.196057
1.1960966
1.1961084
1.1961163
1.1961183
1.1961173
1.1961157
1.1961119
1.1961021
1.1960942
1.1960874
1.1960684
1.1960525
1.1960269
1.1960399
1.1961051
1.1960958
1.1960943
1.1960924
1.1960909
1.1960902
1.1960897
1.1960891
1.1960882
1.196087
1.1960856
1.1960837
1.1960808
1.1960802
1.1960151
1.1960545
1.196091
1.1961044
1.1961133
1.1961161
1.1961157
1.1961147
1.1961114
1.1961019
1.1960941
1.1960876
1.196069
1.1960532
1.1960295
1.1960377
1.1961061
1.1960977
1.1960966
1.1960946
1.1960929
1.1960919
1.1960913
1.1960906
1.1960896
1.1960886
1.1960873
1.1960857
1.196083
1.1960831
1.1960182
1.1960529
1.1960855
1.1961001
1.1961101
1.1961136
1.1961138
1.1961133
1.1961105
1.1961013
1.1960936
1.1960874
1.1960693
1.1960538
1.1960326
1.1960359
1.1961067
1.1960993
1.1960986
1.1960969
1.1960952
1.1960942
1.1960935
1.1960927
1.1960917
1.1960907
1.1960894
1.196088
1.1960853
1.1960861
1.1960219
1.1960524
1.1960806
1.1960954
1.1961063
1.1961107
1.1961116
1.1961115
1.1961092
1.1961003
1.1960927
1.196087
1.1960695
1.1960543
1.1960362
1.196035
1.196107
1.1961005
1.1961002
1.1960988
1.1960974
1.1960965
1.1960959
1.1960951
1.1960941
1.196093
1.1960919
1.1960905
1.1960875
1.196089
1.1960263
1.196053
1.1960769
1.1960906
1.1961021
1.1961074
1.196109
1.1961094
1.1961075
1.1960991
1.1960914
1.1960862
1.1960696
1.1960545
1.1960401
1.1960359
1.196107
1.1961012
1.1961012
1.1961002
1.1960991
1.1960984
1.1960979
1.1960972
1.1960963
1.1960953
1.1960941
1.1960927
1.1960893
1.1960914
1.196031
1.1960546
1.1960748
1.1960861
1.1960975
1.1961035
1.1961058
1.1961068
1.1961055
1.1960975
1.1960898
1.1960852
1.1960695
1.1960545
1.1960439
1.1960388
1.1961069
1.1961016
1.1961018
1.196101
1.1961001
1.1960996
1.1960993
1.1960987
1.1960979
1.1960969
1.1960957
1.1960942
1.1960903
1.196093
1.1960357
1.1960569
1.1960744
1.1960832
1.1960931
1.1960993
1.196102
1.1961037
1.1961029
1.1960955
1.1960878
1.1960837
1.1960693
1.1960542
1.1960469
1.1960433
1.1961066
1.1961018
1.196102
1.1961013
1.1961005
1.1961002
1.1960999
1.1960995
1.1960987
1.1960977
1.1960965
1.196095
1.1960908
1.1960938
1.1960403
1.1960595
1.1960754
1.1960821
1.1960899
1.1960952
1.196098
1.1960999
1.1960998
1.1960931
1.1960853
1.1960819
1.1960688
1.1960538
1.1960485
1.1960479
1.1961063
1.196102
1.196102
1.1961014
1.1961007
1.1961003
1.1961002
1.1960997
1.196099
1.196098
1.1960968
1.1960953
1.196091
1.1960941
1.1960446
1.1960621
1.1960769
1.1960826
1.1960887
1.1960923
1.1960942
1.1960961
1.1960963
1.1960903
1.1960824
1.1960796
1.1960682
1.1960538
1.1960484
1.1960507
1.1961059
1.1961021
1.196102
1.1961014
1.1961007
1.1961004
1.1961002
1.1960998
1.1960991
1.1960981
1.1960969
1.1960955
1.196091
1.1960942
1.1960488
1.1960644
1.1960786
1.1960838
1.1960889
1.1960913
1.1960919
1.196093
1.1960932
1.1960878
1.1960797
1.1960774
1.1960676
1.1960545
1.1960475
1.1960503
1.1961054
1.1961021
1.196102
1.1961014
1.1961007
1.1961004
1.1961003
1.1960998
1.1960991
1.1960982
1.196097
1.1960956
1.196091
1.1960941
1.1960529
1.1960665
1.1960802
1.1960851
1.1960897
1.1960915
1.1960911
1.1960914
1.1960912
1.1960864
1.1960778
1.1960757
1.1960677
1.1960564
1.1960476
1.196048
1.1961049
1.1961022
1.1961019
1.1961013
1.1961007
1.1961004
1.1961002
1.1960998
1.1960991
1.1960982
1.196097
1.1960956
1.196091
1.1960939
1.1960571
1.1960684
1.1960815
1.1960863
1.1960906
1.1960921
1.1960912
1.1960911
1.1960905
1.1960864
1.1960774
1.1960749
1.1960689
1.1960595
1.1960499
1.1960465
1.1961045
1.1961022
1.1961018
1.1961012
1.1961006
1.1961003
1.1961002
1.1960997
1.196099
1.1960981
1.1960969
1.1960956
1.196091
1.1960938
1.1960613
1.1960701
1.1960824
1.1960873
1.1960914
1.1960929
1.1960916
1.1960912
1.1960903
1.1960873
1.1960785
1.1960747
1.1960713
1.1960639
1.1960548
1.1960482
1.196104
1.1961023
1.1961017
1.1961011
1.1961006
1.1961003
1.1961001
1.1960997
1.1960989
1.196098
1.1960968
1.1960956
1.1960912
1.1960936
1.1960657
1.1960719
1.1960832
1.196088
1.1960919
1.1960935
1.196092
1.1960916
1.1960904
1.1960885
1.1960808
1.1960749
1.1960736
1.1960689
1.1960618
1.1960547
1.1961035
1.1961023
1.1961016
1.196101
1.1961005
1.1961003
1.1961001
1.1960996
1.1960989
1.196098