/*--------------------------------*- C++ -*----------------------------------*\
| =========                 |                                                 |
| \\      /  F ield         | OpenFOAM: The Open Source CFD Toolbox           |
|  \\    /   O peration     | Version:  2212                                  |
|   \\  /    A nd           | Website:  www.openfoam.com                      |
|    \\/     M anipulation  |                                                 |
\*---------------------------------------------------------------------------*/
FoamFile
{
    version     2.0;
    format      ascii;
    arch        "LSB;label=32;scalar=64";
    class       volScalarField;
    location    "0.064";
    object      T;
}
// * * * * * * * * * * * * * * * * * * * * * * * * * * * * * * * * * * * * * //

dimensions      [0 0 0 1 0 0 0];

internalField   nonuniform List<scalar> 
18080
(
294.43984
294.43753
294.4339
294.42876
294.42178
294.41265
294.40098
294.38633
294.36811
294.34564
294.31808
294.28439
294.24334
294.19341
294.13279
294.05929
293.97035
293.86294
293.73358
293.57823
293.39242
293.17124
292.90948
292.60184
292.24321
291.82903
291.35575
290.82141
290.22592
289.57198
288.86532
288.11476
287.33226
286.53293
285.73337
284.95182
284.20572
283.51097
282.88039
282.32262
281.84166
281.43692
281.10386
280.835
280.62132
280.4536
280.32243
280.22124
294.43984
294.43753
294.43391
294.42877
294.42181
294.41269
294.40105
294.38641
294.36823
294.3458
294.31828
294.28465
294.24367
294.19382
294.1333
294.05993
293.97114
293.86393
293.73479
293.57974
293.39428
293.17351
292.91225
292.6052
292.24725
291.83386
291.36146
290.82809
290.23365
289.58083
288.87534
288.12596
287.34462
286.54643
285.74796
284.96742
284.22224
283.52835
282.89853
282.34146
281.86115
281.45702
281.12453
280.85623
280.64309
280.47586
280.3451
280.24442
294.43984
294.43753
294.43392
294.42879
294.42185
294.41275
294.40114
294.38654
294.3684
294.34602
294.31857
294.28502
294.24413
294.19441
294.13403
294.06083
293.97225
293.86529
293.73647
293.58178
293.39676
293.17653
292.91589
292.60957
292.25249
291.84008
291.3688
290.83667
290.24358
289.59222
288.88826
288.14043
287.36066
286.56399
285.76695
284.98775
284.24381
283.55102
282.9222
282.36604
281.88657
281.48321
281.15146
280.88387
280.67141
280.50479
280.37458
280.27451
294.43983
294.43753
294.43393
294.42881
294.42189
294.41282
294.40123
294.38667
294.36858
294.34626
294.31888
294.28542
294.24464
294.19505
294.13483
294.06183
293.97349
293.86682
293.73834
293.58408
293.39957
293.17993
292.92001
292.61452
292.2584
291.84708
291.37703
290.84625
290.25462
289.6048
288.90242
288.15619
287.37799
286.58282
285.78718
285.00926
284.26646
283.57469
282.94678
282.39145
281.91274
281.51012
281.17909
280.91221
280.70044
280.5345
280.40487
280.30551
294.43983
294.43753
294.43393
294.42883
294.42193
294.41288
294.40133
294.38681
294.36877
294.34652
294.31921
294.28585
294.24518
294.19573
294.13568
294.06289
293.97481
293.86845
293.74035
293.58655
293.40259
293.18361
292.92445
292.61987
292.26478
291.85464
291.3859
290.85656
290.26647
289.61826
288.91754
288.17296
287.39634
286.60266
285.80839
285.03168
284.28993
283.59908
282.97198
282.41738
281.93938
281.53746
281.20715
280.94102
280.73002
280.56483
280.43588
280.33729
294.43982
294.43753
294.43394
294.42886
294.42197
294.41295
294.40143
294.38696
294.36897
294.34678
294.31956
294.2863
294.24576
294.19646
294.1366
294.06403
293.97623
293.87022
293.74253
293.58923
293.40587
293.18761
292.92929
292.62568
292.27171
291.86283
291.39548
290.86765
290.27916
289.63261
288.93354
288.19058
287.41548
286.62318
285.83012
285.05443
284.31353
283.62339
282.9969
282.44286
281.96543
281.56415
281.23455
280.9692
280.75905
280.59474
280.4666
280.36895
294.43982
294.43752
294.43395
294.42888
294.42202
294.41303
294.40155
294.38713
294.3692
294.34708
294.31995
294.28679
294.24639
294.19725
294.1376
294.06529
293.97779
293.87215
293.74493
293.59217
293.40947
293.19198
292.93458
292.63202
292.27924
291.8717
291.40581
290.87955
290.29269
289.6478
288.95036
288.20894
287.43524
286.64416
285.85208
285.07717
284.33685
283.64714
283.02101
282.46734
281.99036
281.58967
281.26081
280.99635
280.78721
280.62397
280.49687
280.40035
294.43981
294.43752
294.43396
294.42892
294.42208
294.41313
294.40169
294.38732
294.36946
294.34742
294.32039
294.28735
294.2471
294.19815
294.13872
294.06669
293.97954
293.87432
293.74759
293.59545
293.41346
293.19683
292.94041
292.63898
292.28748
291.88134
291.41697
290.89231
290.30708
289.6638
288.9679
288.22786
287.45534
286.66519
285.87377
285.09926
284.35912
283.66945
283.04334
282.48976
282.01306
281.61289
281.28482
281.02142
280.81352
280.65163
280.52588
280.43079
294.4398
294.43752
294.43398
294.42896
294.42216
294.41325
294.40187
294.38756
294.36978
294.34783
294.32091
294.28802
294.24793
294.19919
294.14002
294.0683
293.98154
293.87679
293.75063
293.59915
293.41797
293.20225
292.94691
292.64669
292.29652
291.89184
291.42902
290.90595
290.3223
289.68053
288.98599
288.24708
287.4754
286.68577
285.89453
285.11991
284.37943
283.6893
283.06277
282.50897
282.03235
281.63267
281.30552
281.04341
280.83711
280.677
280.55304
280.45977
294.4398
294.43752
294.434
294.42902
294.42227
294.41342
294.4021
294.38787
294.37018
294.34835
294.32156
294.28883
294.24894
294.20044
294.14157
294.07021
293.98389
293.87967
293.75414
293.60342
293.42311
293.20841
292.95421
292.65527
292.30651
291.90332
291.44204
290.92052
290.33833
289.69786
289.00439
288.26623
287.49492
286.70525
285.91355
285.13813
284.39661
283.70539
283.07789
282.52345
282.04671
281.6475
281.32146
281.06102
280.85682
280.69905
280.57746
280.48656
294.43979
294.43753
294.43404
294.42911
294.42242
294.41364
294.40241
294.38828
294.37071
294.34901
294.32238
294.28984
294.25019
294.20198
294.14345
294.07252
293.98671
293.88309
293.75828
293.60839
293.42905
293.21546
292.9625
292.66492
292.3176
291.91591
291.45613
290.93602
290.35509
289.71563
289.02282
288.28487
287.51328
286.72281
285.92981
285.15272
284.40929
283.71617
283.08704
282.53151
282.05441
281.65573
281.3311
281.07285
280.87142
280.71676
280.59831
280.51046
294.43978
294.43755
294.43411
294.42924
294.42264
294.41396
294.40284
294.38884
294.3714
294.34988
294.32345
294.29115
294.25178
294.20391
294.1458
294.07536
293.99013
293.88721
293.76322
293.61428
293.43601
293.22362
292.97198
292.67581
292.32997
291.92975
291.47136
290.95248
290.37251
289.73363
289.04091
288.30247
287.52975
286.73752
285.94217
285.16231
284.41592
283.71993
283.08839
282.53122
282.05355
281.6555
281.33271
281.07736
280.8796
280.72901
280.61468
280.5307
294.43978
294.43758
294.43421
294.42943
294.42294
294.41439
294.40342
294.38959
294.37234
294.35102
294.32484
294.29283
294.25381
294.20635
294.14873
294.07887
293.99434
293.89222
293.76916
293.62127
293.4442
293.23312
292.98289
292.68819
292.34381
291.94499
291.48784
290.96992
290.39049
289.75163
289.05828
288.31847
287.54356
286.74838
285.94941
285.16547
284.41483
283.71484
283.07996
282.52056
282.0421
281.64488
281.32454
281.073
280.88005
280.73476
280.6257
280.54658
294.43977
294.43764
294.43435
294.4297
294.42336
294.41499
294.40421
294.39059
294.37357
294.35252
294.32665
294.29499
294.25638
294.20942
294.15238
294.08322
293.99948
293.8983
293.7763
293.62961
293.45385
293.24419
292.99545
292.70226
292.35934
291.96181
291.50567
290.98836
290.40897
289.76944
289.07458
288.33231
287.55396
286.75445
285.95034
285.16079
284.40444
283.69913
283.05988
282.49758
282.01811
281.62202
281.30487
281.05831
280.87157
280.73306
280.63065
280.55751
294.43977
294.43772
294.43456
294.43007
294.42393
294.41579
294.40526
294.3919
294.37518
294.35445
294.32895
294.29772
294.25962
294.21324
294.15689
294.08853
294.00573
293.90562
293.78482
293.63947
293.46517
293.25705
293.00989
292.71824
292.37673
291.98036
291.52497
291.00784
290.42789
289.78689
289.08951
288.34356
287.56035
286.7549
285.94395
285.14707
284.38334
283.67124
283.02645
282.46052
281.97984
281.58524
281.27224
281.03205
280.85319
280.72317
280.62899
280.56305
294.43977
294.43783
294.43483
294.43057
294.42469
294.41683
294.40661
294.39357
294.3772
294.35687
294.33181
294.30109
294.26358
294.21789
294.16235
294.09492
294.01319
293.91429
293.79485
293.65099
293.47829
293.27184
293.02634
292.73627
292.39612
292.00074
291.5458
291.02839
290.44723
289.8039
289.10291
288.35195
287.56234
286.74924
285.92962
285.12353
284.35061
283.6301
282.97849
282.4081
281.92598
281.5333
281.22554
280.99334
280.8243
280.70473
280.62051
280.56306
294.43977
294.43798
294.4352
294.43121
294.42566
294.41815
294.4083
294.39565
294.37969
294.35982
294.33527
294.30514
294.2683
294.2234
294.16877
294.1024
294.02188
293.92434
293.80641
293.66419
293.49322
293.28856
293.04481
292.75635
292.41752
292.02299
291.56823
291.05007
290.46702
289.82044
289.11471
288.35738
287.55982
286.73733
285.90718
285.08996
284.30599
283.57538
282.91558
282.33984
281.85601
281.46571
281.16436
280.94195
280.7849
280.67793
280.60551
280.55783
294.43978
294.43818
294.43567
294.43202
294.42686
294.41978
294.41035
294.39814
294.38264
294.36328
294.3393
294.30982
294.27374
294.22972
294.1761
294.1109
294.0317
293.93565
293.81936
293.67891
293.50983
293.30707
293.06516
292.77839
292.44095
292.04727
291.59258
291.07349
290.48809
289.83749
289.12594
288.3609
287.55381
286.72019
285.87763
285.04736
284.25045
283.50798
282.83852
282.25642
281.77045
281.38286
281.08907
280.87833
280.73555
280.64345
280.58466
280.54788
294.4398
294.43843
294.43624
294.43301
294.42832
294.42171
294.41275
294.40101
294.38601
294.36719
294.34383
294.31505
294.27978
294.2367
294.18417
294.12021
294.04243
293.94796
293.83344
293.69486
293.52776
293.32707
293.08722
292.80224
292.46613
292.07313
291.61822
291.09775
290.50963
289.85473
289.13677
288.36305
287.54517
286.69887
285.84218
284.99703
284.18534
283.42929
282.74865
282.15901
281.67029
281.28554
281.00032
280.80306
280.67689
280.60193
280.55848
280.53349
294.43983
294.43873
294.43693
294.43418
294.43002
294.42393
294.41546
294.4042
294.38971
294.37145
294.34871
294.32066
294.28623
294.24412
294.19272
294.13005
294.05374
293.96091
293.84819
293.71165
293.54665
293.34803
293.1101
292.82678
292.49187
292.09935
291.64392
291.12164
290.53014
289.87001
289.1448
288.36173
287.53216
286.6721
285.80009
284.93865
284.11064
283.33948
282.64627
282.04796
281.55579
281.17386
280.8981
280.71617
280.60905
280.55353
280.52695
280.51442
294.43986
294.43906
294.43771
294.43552
294.43194
294.42639
294.41841
294.40762
294.39363
294.37591
294.3538
294.32646
294.29287
294.25172
294.20144
294.14007
294.06522
293.97409
293.86324
293.72864
293.56567
293.36907
293.13305
292.85137
292.51762
292.12551
291.66944
291.14518
290.55008
289.88442
289.1514
288.35819
287.51623
286.64162
285.75313
284.87432
284.02896
283.24154
282.53454
281.92644
281.42999
281.05061
280.78492
280.61997
280.53427
280.50036
280.49186
280.49206
294.4399
294.43943
294.43856
294.43699
294.43404
294.42903
294.42151
294.41116
294.39762
294.38041
294.35889
294.33223
294.29944
294.25923
294.21003
294.14993
294.07656
293.98703
293.87792
293.7452
293.58418
293.38955
293.15538
292.87529
292.54264
292.15091
291.69416
291.16786
290.56913
289.89788
289.15695
288.35341
287.4988
286.60936
285.70419
284.80724
283.94326
283.13887
282.41724
281.79834
281.29666
280.91925
280.66384
280.51721
280.45515
280.44475
280.45499
280.46763
294.43993
294.4398
294.43945
294.43856
294.43626
294.43176
294.42464
294.41467
294.40155
294.3848
294.36381
294.33779
294.30573
294.2664
294.21826
294.15933
294.08728
293.99924
293.89176
293.7608
293.60163
293.40885
293.17645
292.89787
292.56629
292.17492
291.7175
291.18918
290.58694
289.91026
289.16155
288.34785
287.48085
286.57664
285.65496
284.74034
283.85818
283.0353
282.29799
281.66761
281.15978
280.78353
280.53819
280.41084
280.37444
280.38907
280.41804
280.4423
294.43997
294.44015
294.44033
294.44017
294.43853
294.43447
294.42769
294.41805
294.40528
294.38894
294.36842
294.34297
294.31161
294.27308
294.22583
294.16795
294.0971
294.0104
293.90442
293.77508
293.6176
293.42654
293.19577
292.9186
292.58803
292.197
291.73897
291.20872
290.60319
289.92142
289.16525
288.34183
287.46303
286.54451
285.60695
284.67509
283.7751
282.9355
282.18238
281.53903
281.02425
280.64817
280.41221
280.3046
280.29558
280.33616
280.38301
280.41762
294.43999
294.44045
294.44116
294.44178
294.44076
294.43708
294.43057
294.42119
294.40872
294.39273
294.37264
294.34768
294.31689
294.27903
294.23258
294.17563
294.10583
294.02033
293.91569
293.78779
293.63184
293.44232
293.21303
292.93716
292.6075
292.21682
291.75824
291.22616
290.61765
289.93122
289.16806
288.33555
287.44581
286.51365
285.56124
284.61291
283.69589
282.83998
282.07226
281.41666
280.89329
280.51634
280.28872
280.20081
280.2206
280.28739
280.35047
280.39405
294.44001
294.44069
294.4419
294.44334
294.44289
294.4395
294.43319
294.42404
294.41181
294.39612
294.37636
294.35181
294.32151
294.28423
294.23846
294.1823
294.11343
294.02897
293.92549
293.79885
293.64424
293.45609
293.22811
292.95339
292.62456
292.2342
291.77515
291.24136
290.63021
289.93958
289.17
288.32911
287.42947
286.4845
285.51851
284.55473
283.62169
282.75043
281.96859
281.30146
280.77003
280.39092
280.17028
280.10153
280.15125
280.24375
280.32077
280.37216
294.44002
294.44086
294.44254
294.44481
294.44485
294.44168
294.43553
294.42654
294.41452
294.39905
294.37958
294.35536
294.32547
294.28868
294.24349
294.188
294.11991
294.03634
293.93386
293.8083
293.65484
293.46787
293.24103
292.96731
292.6392
292.24912
291.78967
291.25428
290.64082
289.94649
289.17106
288.3226
287.41417
286.45726
285.47914
284.50102
283.55321
282.66774
281.87262
281.19421
280.65531
280.27279
280.05765
280.00711
280.08761
280.20462
280.29285
280.35129
294.44003
294.44095
294.44305
294.44615
294.44661
294.44359
294.43755
294.4287
294.41683
294.40154
294.38229
294.35836
294.3288
294.29242
294.2477
294.19279
294.12535
294.04253
293.94088
293.81624
293.66375
293.47778
293.25189
292.97903
292.65152
292.26167
291.80189
291.265
290.64955
289.95196
289.17127
288.31601
287.3999
286.43198
285.44325
284.45192
283.4907
282.59226
281.7848
281.09581
280.54922
280.16388
279.95269
279.91901
280.0308
280.17043
280.26685
280.33215
294.44002
294.44098
294.44346
294.44736
294.44815
294.44522
294.43927
294.43052
294.41877
294.40362
294.38455
294.36085
294.33156
294.29552
294.2512
294.19675
294.12985
294.04764
293.94669
293.82281
293.67113
293.48598
293.26089
292.98873
292.66172
292.27204
291.81195
291.27368
290.6565
289.95606
289.17068
288.30936
287.38663
286.40859
285.41072
284.40734
283.4341
282.52397
281.7052
281.00637
280.45234
280.06373
279.855
279.83657
279.97982
280.13963
280.24116
280.31366
294.44002
294.44096
294.44378
294.44841
294.44945
294.44659
294.44071
294.43203
294.42036
294.40533
294.38641
294.36289
294.33383
294.29805
294.25405
294.19998
294.13352
294.05182
293.95143
293.82817
293.67714
293.49267
293.26823
292.99663
292.67
292.28043
291.82007
291.28049
290.66181
289.95888
289.16933
288.30263
287.37424
286.38697
285.38133
284.36699
283.38311
282.46252
281.63349
280.92566
280.36455
279.97249
279.76467
279.75975
279.93418
280.11138
280.2153
280.29558
294.44001
294.44091
294.44402
294.44933
294.45055
294.44773
294.4419
294.43328
294.42168
294.40674
294.38793
294.36456
294.33567
294.30011
294.25637
294.20261
294.1365
294.05521
293.95527
293.83251
293.68202
293.49809
293.27417
293.00302
292.67667
292.28714
291.82652
291.2857
290.66571
289.96057
289.1673
288.29583
287.36259
286.36693
285.35471
284.33046
283.3372
282.40731
281.56904
280.85303
280.28532
279.88955
279.6821
279.6888
279.89377
280.08537
280.18914
280.27792
294.44
294.44084
294.4442
294.4501
294.45145
294.44867
294.44288
294.43429
294.42275
294.40789
294.38918
294.36593
294.3372
294.30184
294.25834
294.20486
294.1391
294.05821
293.95873
293.83648
293.68654
293.50317
293.2798
293.00914
292.68313
292.29373
291.83296
291.2911
290.67001
289.96296
289.16641
288.29068
287.35325
286.34992
285.33204
284.29873
283.29715
282.35887
281.5122
280.78873
280.21484
279.81541
279.60746
279.62538
279.86297
280.06805
280.17127
280.27087
294.43999
294.44077
294.44433
294.45077
294.45223
294.44949
294.44374
294.43521
294.42375
294.40899
294.39045
294.36744
294.33901
294.30408
294.26112
294.20832
294.14339
294.06348
293.96515
293.84418
293.69565
293.5138
293.29203
293.02302
292.69863
292.31076
291.85142
291.31023
290.68996
289.9831
289.18559
288.30811
287.36924
286.36119
285.34097
284.30201
283.29592
282.35322
281.50227
280.77542
280.19949
279.80092
279.59727
279.63375
279.91674
280.14358
280.25255
280.37236
294.43998
294.44069
294.44444
294.45142
294.45306
294.45044
294.44483
294.43651
294.42537
294.41112
294.39331
294.3713
294.34417
294.31077
294.26955
294.21866
294.15576
294.078
293.98195
293.86342
293.71756
293.53868
293.32022
293.05496
292.73476
292.35157
291.89743
291.36143
290.7472
290.04659
289.25497
288.38337
287.45136
286.44763
285.43458
284.39996
283.39974
282.46322
281.61892
280.90027
280.3358
279.95302
279.77382
279.85864
280.22773
280.51709
280.67301
280.85871
294.43996
294.4406
294.44463
294.45237
294.45448
294.4523
294.44732
294.43996
294.43023
294.41782
294.4021
294.3822
294.35698
294.32526
294.28553
294.23606
294.17468
294.09871
294.00486
293.88907
293.74662
293.57195
293.35861
293.09951
292.78661
292.41195
291.96773
291.4427
290.84125
290.15487
289.37856
288.52365
287.61075
286.62555
285.63532
284.62297
283.64879
282.74166
281.9314
281.25384
280.73721
280.41232
280.30942
280.49552
280.98511
281.37254
281.61342
281.89214
294.43987
294.44053
294.44524
294.4544
294.45767
294.45679
294.45364
294.44856
294.44101
294.43015
294.41518
294.39549
294.37036
294.33891
294.29982
294.2515
294.19181
294.11813
294.02727
293.91526
293.77751
293.60863
293.40233
293.15171
292.84892
292.48622
292.05606
291.54709
290.96449
290.29971
289.54757
288.71986
287.83817
286.886
285.93457
284.96299
284.03497
283.17852
282.42346
281.80601
281.35529
281.10233
281.07578
281.33536
281.90226
282.34336
282.62225
282.93355
294.43956
294.44065
294.44709
294.45863
294.46386
294.46518
294.46391
294.45954
294.45152
294.43973
294.42408
294.40422
294.37942
294.34878
294.31097
294.26438
294.20696
294.13617
294.04889
293.94132
293.80901
293.64673
293.44841
293.20737
292.916
292.56683
292.15261
291.6621
291.10111
290.46123
289.73718
288.941
288.09491
287.1807
286.27186
285.34465
284.46422
283.65746
282.95329
282.38713
281.98677
281.78187
281.79629
282.08871
282.68569
283.13422
283.40601
283.705
294.43874
294.44154
294.45109
294.46537
294.47231
294.47428
294.47208
294.46617
294.45703
294.44483
294.42932
294.41003
294.38615
294.35676
294.32055
294.27597
294.22103
294.15327
294.0697
293.96663
293.83976
293.68406
293.49364
293.26204
292.98191
292.64605
292.24752
291.77524
291.23555
290.62011
289.9235
289.15784
288.34567
287.46729
286.59739
285.70993
284.87037
284.10434
283.43943
282.90977
282.54135
282.36201
282.39176
282.69064
283.29023
283.72109
283.9633
284.22901
294.43727
294.44393
294.45715
294.47284
294.47931
294.47947
294.47563
294.46894
294.45974
294.44789
294.43303
294.41461
294.39184
294.3638
294.32923
294.28664
294.23408
294.16919
294.08909
293.99018
293.86833
293.71866
293.53549
293.31255
293.04272
292.71907
292.33494
291.87944
291.35925
290.76606
290.09429
289.35603
288.5739
287.72686
286.89027
286.036
285.22942
284.49482
283.85831
283.35268
283.00223
282.83317
282.86297
283.15339
283.73981
284.13946
284.34201
284.56679
294.43542
294.44789
294.46338
294.47809
294.4823
294.48097
294.4767
294.47018
294.46142
294.45019
294.43609
294.41858
294.39688
294.37012
294.33707
294.29626
294.24584
294.1835
294.10645
294.01122
293.89381
293.74947
293.5727
293.35743
293.09673
292.78392
292.41258
291.97198
291.46905
290.89538
290.2453
289.53085
288.77448
287.95403
287.14516
286.31788
285.53724
284.82621
284.20943
283.71844
283.37612
283.20733
283.22794
283.50117
284.06491
284.42644
284.58726
284.77201
294.43378
294.45221
294.46749
294.47996
294.48248
294.481
294.47703
294.47096
294.46274
294.45214
294.43874
294.42205
294.4013
294.37566
294.34391
294.30465
294.25607
294.19593
294.12152
294.02948
293.91591
293.77621
293.60501
293.3964
293.14367
292.8403
292.4801
292.05248
291.56451
291.00764
290.37616
289.68203
288.94739
288.14913
287.36303
286.55735
285.79685
285.10309
284.49939
284.01619
283.67523
283.50026
283.50616
283.75726
284.29271
284.61389
284.73654
284.88807
294.43283
294.45526
294.4689
294.47976
294.4819
294.48079
294.47723
294.47159
294.46384
294.45374
294.44094
294.42492
294.40496
294.38024
294.34959
294.31165
294.26463
294.20637
294.13423
294.04493
293.93467
293.79898
293.63259
293.42974
293.18388
292.88867
292.53807
292.12166
291.6465
291.1039
290.48823
289.8113
289.09479
288.31496
287.54741
286.75889
286.01386
285.33247
284.73689
284.25664
283.91252
283.72735
283.71544
283.94186
284.44611
284.72809
284.81968
284.94906
294.4326
294.4564
294.46876
294.47909
294.48141
294.48064
294.4774
294.47206
294.46464
294.45492
294.44255
294.42705
294.4077
294.38371
294.35395
294.31708
294.27136
294.21469
294.14449
294.05754
293.95014
293.8179
293.65566
293.45778
293.21786
292.92968
292.58735
292.18056
291.71632
291.18582
290.58358
289.92117
289.21977
288.45524
287.70279
286.92788
286.19472
285.52198
284.93092
284.45032
284.10013
283.90241
283.87112
284.07174
284.54368
284.78989
284.85924
284.98048
294.43275
294.45627
294.46829
294.47862
294.48113
294.48057
294.4775
294.47235
294.46512
294.45564
294.44354
294.42837
294.40943
294.38596
294.35684
294.32077
294.27608
294.22067
294.15204
294.06704
293.96205
293.83274
293.67406
293.48047
293.24569
292.96359
292.62842
292.22995
291.77507
291.25489
290.66413
290.01404
289.32526
288.57352
287.8334
287.0693
286.34526
285.67839
285.08929
284.60616
284.24815
284.03663
283.98538
284.16004
284.59977
284.81526
284.87158
285.00044
294.43296
294.45581
294.46797
294.4784
294.48102
294.48054
294.47755
294.47248
294.46535
294.45598
294.44402
294.42903
294.41032
294.38714
294.3584
294.32283
294.27878
294.22422
294.15669
294.07311
293.96992
293.84289
293.68706
293.49701
293.26656
292.98966
292.66065
292.26942
291.82265
291.31142
290.73065
290.0912
289.41315
288.67229
287.94236
287.18702
286.47007
285.80709
285.21827
284.73128
284.36456
284.13878
284.06766
284.21687
284.6252
284.81619
284.86844
285.01848
294.43309
294.4555
294.46784
294.47831
294.48097
294.48053
294.47757
294.47253
294.46544
294.45611
294.44421
294.42929
294.41068
294.38763
294.35905
294.32371
294.27997
294.22583
294.15886
294.07603
293.97386
293.84819
293.69417
293.50648
293.27906
293.006
292.68174
292.29628
291.85619
291.35249
290.78036
290.15027
289.48164
288.75045
288.02943
287.2817
286.57078
285.91068
285.32148
284.83024
284.45471
284.21495
284.12466
284.2498
284.62809
284.80091
284.85869
285.02055
294.43313
294.45538
294.4678
294.47829
294.48096
294.48052
294.47758
294.47255
294.46547
294.45615
294.44427
294.42938
294.41079
294.38778
294.35926
294.324
294.28036
294.22636
294.15959
294.07703
293.97523
293.85007
293.69675
293.51002
293.28391
293.0126
292.69065
292.30823
291.87196
291.37291
290.80654
290.18311
289.52166
288.79827
288.08478
287.3439
286.63869
285.98169
285.39296
284.89879
284.51631
284.26501
284.15864
284.26393
284.6166
284.77871
284.85096
284.92742
294.43314
294.45536
294.46779
294.47828
294.48096
294.48052
294.47758
294.47255
294.46547
294.45617
294.44429
294.4294
294.41082
294.38782
294.35932
294.32407
294.28046
294.22649
294.15976
294.07726
293.97554
293.85048
293.69731
293.51078
293.28493
293.01398
292.69252
292.31075
291.87532
291.37735
290.81239
290.1907
289.53127
288.81026
288.09929
287.36095
286.65813
286.0028
285.41491
284.92034
284.53586
284.2806
284.16834
284.26559
284.60815
284.76857
284.85065
284.51962
294.44296
294.44259
294.44233
294.44206
294.44182
294.44168
294.44164
294.44163
294.44162
294.44159
294.44155
294.44143
294.44106
294.43798
294.44142
294.43691
294.43068
294.43083
294.43144
294.43228
294.43308
294.43355
294.43428
294.43419
294.43372
294.43279
294.43164
294.42878
294.42979
294.41438
294.44268
294.44257
294.44233
294.44206
294.44182
294.44168
294.44164
294.44163
294.44161
294.44158
294.44154
294.44141
294.44104
294.43795
294.44142
294.437
294.43079
294.43091
294.43148
294.4323
294.43308
294.43351
294.43422
294.43408
294.43356
294.43278
294.43153
294.42849
294.42954
294.41648
294.44225
294.4425
294.44232
294.44207
294.44183
294.44169
294.44164
294.44162
294.4416
294.44156
294.44152
294.44138
294.441
294.43787
294.44142
294.43719
294.43105
294.43109
294.43159
294.43235
294.43307
294.43344
294.43411
294.43391
294.43327
294.43255
294.43122
294.42806
294.42868
294.41588
294.44175
294.44235
294.44229
294.44206
294.44184
294.44169
294.44163
294.44161
294.44157
294.44153
294.44147
294.44133
294.44091
294.4377
294.44141
294.43752
294.4315
294.43142
294.4318
294.43245
294.43305
294.43336
294.43394
294.43364
294.43289
294.43214
294.43071
294.42745
294.42771
294.41592
294.44124
294.44207
294.44219
294.44203
294.44183
294.44169
294.44162
294.44158
294.44153
294.44148
294.44141
294.44124
294.44077
294.43743
294.44138
294.43801
294.43221
294.43194
294.43214
294.43263
294.43308
294.43327
294.43372
294.43332
294.43245
294.43163
294.4301
294.42686
294.42698
294.41674
294.44074
294.44169
294.44199
294.44194
294.44179
294.44166
294.44159
294.44154
294.44148
294.4414
294.4413
294.4411
294.44055
294.43706
294.44129
294.43864
294.43319
294.43266
294.43263
294.43292
294.43318
294.43323
294.43352
294.433
294.43204
294.43116
294.42961
294.4265
294.42659
294.41808
294.44028
294.44121
294.44168
294.44176
294.44168
294.44159
294.44153
294.44146
294.44138
294.44128
294.44116
294.44089
294.44025
294.4366
294.44112
294.43934
294.43434
294.4335
294.43325
294.43332
294.43338
294.43328
294.43343
294.4328
294.43178
294.43088
294.42937
294.42647
294.42648
294.41965
294.43988
294.44069
294.44124
294.44145
294.44147
294.44143
294.44139
294.44133
294.44124
294.44111
294.44094
294.44061
294.43985
294.43607
294.44083
294.44003
294.43563
294.43441
294.43394
294.43381
294.43369
294.43345
294.43347
294.43278
294.43171
294.43082
294.42938
294.42671
294.42653
294.42128
294.43954
294.44016
294.44071
294.441
294.44111
294.44115
294.44115
294.4411
294.441
294.44085
294.44065
294.44023
294.43938
294.43549
294.44044
294.44061
294.437
294.4354
294.43468
294.43437
294.43408
294.43372
294.43364
294.4329
294.43181
294.43094
294.42956
294.42712
294.42674
294.42282
294.43928
294.4397
294.44015
294.44045
294.44061
294.44071
294.44075
294.44073
294.44063
294.44047
294.44023
294.43975
294.43884
294.43487
294.43994
294.44099
294.43833
294.43647
294.4355
294.435
294.43456
294.43408
294.43392
294.43315
294.43204
294.43119
294.42987
294.42765
294.42711
294.42423
294.43909
294.43933
294.43965
294.43989
294.44005
294.44016
294.44022
294.44022
294.44013
294.43997
294.43971
294.43918
294.43827
294.43425
294.43934
294.4411
294.43951
294.43762
294.43642
294.43572
294.43512
294.43453
294.4343
294.4335
294.43237
294.43154
294.43028
294.4283
294.42769
294.42559
294.43898
294.43907
294.43927
294.43941
294.43951
294.43959
294.43964
294.43963
294.43955
294.43938
294.43912
294.43858
294.43773
294.4337
294.43869
294.44095
294.44038
294.43879
294.43746
294.43655
294.43579
294.43508
294.43477
294.43395
294.43281
294.43199
294.43079
294.42904
294.42847
294.42702
294.43893
294.43892
294.43902
294.43908
294.4391
294.43912
294.43914
294.4391
294.439
294.43883
294.43857
294.43805
294.4373
294.43329
294.43803
294.44058
294.44084
294.43985
294.43858
294.43752
294.43659
294.43575
294.43536
294.43451
294.43336
294.43255
294.43142
294.42986
294.42943
294.42859
294.43892
294.43885
294.43889
294.43889
294.43886
294.43883
294.4388
294.43874
294.43861
294.43843
294.43818
294.43768
294.43705
294.4331
294.43745
294.44007
294.44088
294.44055
294.43963
294.43858
294.43753
294.43656
294.43607
294.43521
294.43403
294.43324
294.43218
294.43076
294.43046
294.43026
294.43893
294.43883
294.43885
294.43882
294.43876
294.4387
294.43865
294.43856
294.43842
294.43823
294.43799
294.4375
294.43695
294.43313
294.437
294.43951
294.44063
294.44077
294.44038
294.43957
294.43854
294.4375
294.43693
294.43605
294.43486
294.43407
294.43309
294.43174
294.43145
294.43182
294.43895
294.43884
294.43884
294.4388
294.43873
294.43867
294.4386
294.43851
294.43836
294.43817
294.43793
294.43743
294.43694
294.43331
294.4367
294.43899
294.44022
294.44063
294.44066
294.44027
294.43945
294.43845
294.43786
294.437
294.43582
294.43501
294.43412
294.43285
294.43234
294.43299
294.43899
294.43885
294.43885
294.4388
294.43873
294.43866
294.43859
294.43849
294.43834
294.43815
294.43791
294.43741
294.43697
294.43358
294.43652
294.43856
294.43979
294.44033
294.44059
294.44052
294.44002
294.43921
294.43869
294.43793
294.43679
294.43598
294.43519
294.43404
294.43321
294.43372
294.43903
294.43888
294.43887
294.43882
294.43874
294.43867
294.4386
294.43849
294.43834
294.43815
294.43791
294.43742
294.43702
294.43391
294.43645
294.43824
294.43941
294.44
294.44038
294.44049
294.4402
294.43961
294.43924
294.43865
294.43763
294.43681
294.43617
294.43517
294.43414
294.43419
294.43908
294.43891
294.4389
294.43885
294.43877
294.4387
294.43862
294.43851
294.43836
294.43817
294.43793
294.43745
294.4371
294.43428
294.43645
294.43803
294.43912
294.4397
294.44014
294.44036
294.4402
294.43974
294.43948
294.43907
294.43822
294.43741
294.43698
294.43615
294.4351
294.43469
294.43913
294.43895
294.43893
294.43888
294.43881
294.43873
294.43866
294.43855
294.43839
294.4382
294.43797
294.4375
294.43718
294.43469
294.4365
294.4379
294.43892
294.43948
294.43992
294.44021
294.44013
294.43975
294.43955
294.43931
294.43864
294.43781
294.43757
294.43701
294.43611
294.43544
294.43918
294.43898
294.43896
294.43891
294.43884
294.43877
294.43869
294.43858
294.43843
294.43824
294.43801
294.43755
294.43727
294.4351
294.43659
294.43784
294.43879
294.43933
294.43976
294.44008
294.44006
294.43975
294.43955
294.43945
294.43897
294.43818
294.43797
294.43772
294.43717
294.43657
294.43922
294.43902
294.43899
294.43894
294.43888
294.43881