/*--------------------------------*- C++ -*----------------------------------*\
| =========                 |                                                 |
| \\      /  F ield         | OpenFOAM: The Open Source CFD Toolbox           |
|  \\    /   O peration     | Version:  2212                                  |
|   \\  /    A nd           | Website:  www.openfoam.com                      |
|    \\/     M anipulation  |                                                 |
\*---------------------------------------------------------------------------*/
FoamFile
{
    version     2.0;
    format      ascii;
    arch        "LSB;label=32;scalar=64";
    class       volScalarField;
    location    "5";
    object      alphat;
}
// * * * * * * * * * * * * * * * * * * * * * * * * * * * * * * * * * * * * * //

dimensions      [1 -1 -1 0 0 0 0];

internalField   nonuniform List<scalar> 
20480
(
5.3904106e-05
6.223589e-05
6.1555949e-05
5.8331472e-05
5.6675415e-05
5.60115e-05
5.5640847e-05
5.53242e-05
5.5022452e-05
5.4743942e-05
5.4496047e-05
5.4277091e-05
5.4081615e-05
5.3904743e-05
5.3742903e-05
5.3593718e-05
5.3455525e-05
5.3326938e-05
5.3206893e-05
5.3094272e-05
5.2988341e-05
5.2888325e-05
5.279366e-05
5.270347e-05
5.261634e-05
5.2528319e-05
5.2427652e-05
5.2273594e-05
5.1956441e-05
5.1223242e-05
5.0044554e-05
4.9397113e-05
5.3921518e-05
6.2228145e-05
6.1550504e-05
5.832872e-05
5.6669678e-05
5.6003587e-05
5.5633184e-05
5.5317464e-05
5.5016374e-05
5.4738301e-05
5.449077e-05
5.4272147e-05
5.4076974e-05
5.3900375e-05
5.3738779e-05
5.3589812e-05
5.3451815e-05
5.3323403e-05
5.3203517e-05
5.3091041e-05
5.2985241e-05
5.2885346e-05
5.2790792e-05
5.2700705e-05
5.2613675e-05
5.2525765e-05
5.2425251e-05
5.2271508e-05
5.1954978e-05
5.1223027e-05
5.0045605e-05
4.9397937e-05
5.3970474e-05
6.2249027e-05
6.1563758e-05
5.8339999e-05
5.6677315e-05
5.6008907e-05
5.5638483e-05
5.5323099e-05
5.5021914e-05
5.4743555e-05
5.449574e-05
5.4276866e-05
5.4081466e-05
5.3904656e-05
5.3742863e-05
5.3593713e-05
5.3455546e-05
5.3326976e-05
5.3206945e-05
5.3094333e-05
5.2988408e-05
5.2888397e-05
5.2793738e-05
5.2703556e-05
5.2616447e-05
5.2528492e-05
5.2428024e-05
5.2274576e-05
5.1958841e-05
5.1227885e-05
5.0050625e-05
4.9399749e-05
5.4047126e-05
6.2271865e-05
6.156187e-05
5.8337913e-05
5.667545e-05
5.6005986e-05
5.5635784e-05
5.5320896e-05
5.5019895e-05
5.4741618e-05
5.4493907e-05
5.4275147e-05
5.4079858e-05
5.3903153e-05
5.3741456e-05
5.3592393e-05
5.3454306e-05
5.3325808e-05
5.3205843e-05
5.3093288e-05
5.2987418e-05
5.2887456e-05
5.2792845e-05
5.2702711e-05
5.2615663e-05
5.2527813e-05
5.2427609e-05
5.2274855e-05
5.1960846e-05
5.1232253e-05
5.0056812e-05
4.940265e-05
5.4149992e-05
6.2301224e-05
6.1558521e-05
5.8337339e-05
5.6676943e-05
5.6006347e-05
5.5636196e-05
5.5321819e-05
5.502103e-05
5.4742823e-05
5.4495165e-05
5.4276443e-05
5.4081173e-05
5.3904476e-05
5.3742773e-05
5.3593697e-05
5.345559e-05
5.3327067e-05
5.3207076e-05
5.3094491e-05
5.2988592e-05
5.28886e-05
5.2793965e-05
5.2703812e-05
5.2616766e-05
5.252898e-05
5.2429048e-05
5.2277115e-05
5.1965241e-05
5.1239415e-05
5.0065802e-05
4.9406458e-05
5.4278402e-05
6.233711e-05
6.1553319e-05
5.833606e-05
5.667829e-05
5.6006021e-05
5.5635637e-05
5.5321724e-05
5.5021123e-05
5.4742956e-05
5.4495333e-05
5.4276642e-05
5.4081398e-05
5.3904722e-05
5.3743036e-05
5.3593972e-05
5.3455876e-05
5.332736e-05
5.3207376e-05
5.3094793e-05
5.2988899e-05
5.288891e-05
5.2794282e-05
5.2704142e-05
5.2617133e-05
5.2529461e-05
5.24299e-05
5.2279023e-05
5.1969868e-05
5.1247616e-05
5.0076634e-05
4.9411275e-05
5.4431939e-05
6.2379101e-05
6.1546166e-05
5.8334033e-05
5.6679751e-05
5.6005726e-05
5.5635168e-05
5.5321869e-05
5.5021552e-05
5.4743487e-05
5.4495943e-05
5.4277317e-05
5.4082121e-05
5.3905485e-05
5.3743824e-05
5.3594778e-05
5.3456694e-05
5.3328183e-05
5.3208203e-05
5.3095616e-05
5.2989719e-05
5.2889723e-05
5.2795095e-05
5.270496e-05
5.2617985e-05
5.2530435e-05
5.24313e-05
5.2281659e-05
5.1975711e-05
5.1257658e-05
5.0089806e-05
4.9417081e-05
5.4610193e-05
6.2426585e-05
6.1537036e-05
5.8331312e-05
5.6681331e-05
5.6005432e-05
5.5634659e-05
5.5322001e-05
5.5021965e-05
5.4743983e-05
5.4496503e-05
5.4277925e-05
5.4082765e-05
5.3906156e-05
5.3744511e-05
5.3595476e-05
5.3457401e-05
5.3328893e-05
5.3208917e-05
5.3096327e-05
5.2990432e-05
5.2890434e-05
5.279581e-05
5.2705686e-05
5.2618755e-05
5.2531351e-05
5.2432713e-05
5.22845e-05
5.1982274e-05
5.1269128e-05
5.0105125e-05
4.9423943e-05
5.4812733e-05
6.2478871e-05
6.152592e-05
5.8327936e-05
5.6682997e-05
5.6005108e-05
5.5634098e-05
5.5322125e-05
5.5022394e-05
5.4744513e-05
5.449711e-05
5.4278592e-05
5.4083476e-05
5.3906903e-05
5.3745283e-05
5.3596267e-05
5.3458208e-05
5.3329711e-05
5.3209748e-05
5.3097162e-05
5.2991275e-05
5.2891279e-05
5.2796665e-05
5.2706556e-05
5.2619677e-05
5.2532438e-05
5.2434358e-05
5.2287753e-05
5.1989738e-05
5.1282172e-05
5.0122736e-05
4.9431901e-05
5.5039128e-05
6.2535239e-05
6.151281e-05
5.8323947e-05
5.6684708e-05
5.6004733e-05
5.5633478e-05
5.5322231e-05
5.5022826e-05
5.4745052e-05
5.4497731e-05
5.4279274e-05
5.4084201e-05
5.3907664e-05
5.3746066e-05
5.359707e-05
5.3459029e-05
5.3330545e-05
5.3210598e-05
5.309802e-05
5.2992144e-05
5.2892154e-05
5.2797554e-05
5.2707465e-05
5.2620645e-05
5.2533589e-05
5.2436127e-05
5.2291305e-05
5.1997986e-05
5.1296692e-05
5.0142654e-05
4.9441025e-05
5.5288982e-05
6.2595007e-05
6.1497721e-05
5.8319389e-05
5.6686427e-05
5.6004285e-05
5.5632791e-05
5.5322306e-05
5.5023243e-05
5.4745587e-05
5.4498352e-05
5.4279959e-05
5.4084931e-05
5.3908432e-05
5.3746861e-05
5.3597888e-05
5.345987e-05
5.3331407e-05
5.3211483e-05
5.309892e-05
5.2993064e-05
5.2893086e-05
5.2798506e-05
5.2708441e-05
5.2621689e-05
5.2534833e-05
5.2438046e-05
5.2295175e-05
5.2007026e-05
5.1312699e-05
5.0164967e-05
4.9451392e-05
5.5562011e-05
6.2657595e-05
6.1480705e-05
5.8314319e-05
5.6688117e-05
5.600374e-05
5.5632026e-05
5.5322337e-05
5.502363e-05
5.4746101e-05
5.449896e-05
5.4280633e-05
5.4085654e-05
5.3909195e-05
5.3747653e-05
5.3598708e-05
5.3460719e-05
5.3332282e-05
5.321239e-05
5.3099848e-05
5.2994019e-05
5.2894058e-05
5.2799502e-05
5.2709467e-05
5.2622787e-05
5.2536148e-05
5.2440088e-05
5.2299328e-05
5.2016815e-05
5.133016e-05
5.0189754e-05
4.9463101e-05
5.5858133e-05
6.2722594e-05
6.146187e-05
5.8308808e-05
5.6689747e-05
5.6003081e-05
5.5631177e-05
5.532231e-05
5.5023974e-05
5.4746582e-05
5.4499543e-05
5.4281288e-05
5.4086361e-05
5.3909947e-05
5.3748438e-05
5.3599525e-05
5.3461572e-05
5.3333167e-05
5.3213314e-05
5.31008e-05
5.2995004e-05
5.2895066e-05
5.280054e-05
5.2710537e-05
5.2623936e-05
5.2537529e-05
5.2442245e-05
5.2303749e-05
5.2027331e-05
5.1349066e-05
5.021712e-05
4.9476271e-05
5.6177572e-05
6.2789805e-05
6.1441385e-05
5.8302939e-05
5.6691289e-05
5.6002289e-05
5.5630237e-05
5.5322218e-05
5.5024264e-05
5.4747023e-05
5.4500095e-05
5.4281919e-05
5.4087049e-05
5.3910685e-05
5.3749214e-05
5.3600339e-05
5.3462426e-05
5.3334061e-05
5.3214254e-05
5.3101774e-05
5.2996017e-05
5.2896105e-05
5.2801612e-05
5.2711645e-05
5.2625127e-05
5.2538963e-05
5.2444502e-05
5.230842e-05
5.2038554e-05
5.1369427e-05
5.0247236e-05
4.9491136e-05
5.6520962e-05
6.2859248e-05
6.1419475e-05
5.8296813e-05
5.669272e-05
5.6001354e-05
5.5629204e-05
5.5322052e-05
5.5024494e-05
5.4747418e-05
5.4500614e-05
5.4282524e-05
5.4087718e-05
5.3911411e-05
5.3749983e-05
5.3601152e-05
5.3463285e-05
5.3334964e-05
5.3215209e-05
5.3102767e-05
5.2997054e-05
5.2897171e-05
5.2802713e-05
5.2712782e-05
5.2626352e-05
5.2540444e-05
5.2446861e-05
5.2313362e-05
5.2050582e-05
5.1391557e-05
5.0280917e-05
4.9509001e-05
5.6889433e-05
6.2931142e-05
6.1396416e-05
5.8290542e-05
5.6694026e-05
5.6000269e-05
5.562808e-05
5.5321815e-05
5.5024664e-05
5.474777e-05
5.4501103e-05
5.4283108e-05
5.4088374e-05
5.3912132e-05
5.3750753e-05
5.3601971e-05
5.3464155e-05
5.3335881e-05
5.3216182e-05
5.310378e-05
5.2998114e-05
5.2898259e-05
5.2803839e-05
5.2713949e-05
5.2627621e-05
5.254202e-05
5.2449477e-05
5.2319067e-05
5.2064853e-05
5.1419222e-05
5.0326241e-05
4.9543408e-05
5.7284655e-05
6.3005835e-05
6.1372513e-05
5.828425e-05
5.6695203e-05
5.5999036e-05
5.5626878e-05
5.5321512e-05
5.5024781e-05
5.4748087e-05
5.4501571e-05
5.4283683e-05
5.408903e-05
5.391286e-05
5.3751536e-05
5.3602806e-05
5.3465042e-05
5.3336819e-05
5.3217176e-05
5.3104815e-05
5.2999196e-05
5.2899374e-05
5.2805005e-05
5.2715203e-05
5.2629129e-05
5.2544305e-05
5.2454235e-05
5.2331167e-05
5.2097601e-05
5.1494575e-05
5.0473178e-05
4.9748379e-05
5.770884e-05
6.3083704e-05
6.1348072e-05
5.8278064e-05
5.6696247e-05
5.5997664e-05
5.562561e-05
5.5321156e-05
5.5024857e-05
5.4748383e-05
5.4502032e-05
5.4284261e-05
5.4089699e-05
5.3913609e-05
5.3752344e-05
5.3603669e-05
5.3465959e-05
5.3337784e-05
5.3218199e-05
5.3105881e-05
5.3000322e-05
5.2900582e-05
5.2806432e-05
5.271724e-05
5.2633048e-05
5.2553985e-05
5.2481448e-05
5.2410282e-05
5.2323875e-05
5.2076335e-05
5.1721445e-05
5.1904294e-05
5.816467e-05
6.316503e-05
6.1323382e-05
5.8272113e-05
5.6697167e-05
5.5996172e-05
5.5624303e-05
5.5320769e-05
5.5024914e-05
5.4748677e-05
5.4502506e-05
5.4284862e-05
5.4090399e-05
5.3914396e-05
5.3753194e-05
5.3604574e-05
5.3466917e-05
5.3338793e-05
5.3219278e-05
5.3107049e-05
5.3001721e-05
5.2902611e-05
5.2810428e-05
5.2727328e-05
5.2661964e-05
5.2640489e-05
5.2742266e-05
5.3188461e-05
5.4579479e-05
5.8042754e-05
6.5070686e-05
7.7050155e-05
5.8655163e-05
6.3249868e-05
6.1298684e-05
5.8266521e-05
5.6697976e-05
5.5994583e-05
5.5622987e-05
5.5320379e-05
5.5024977e-05
5.4748995e-05
5.4503016e-05
5.4285507e-05
5.4091151e-05
5.3915239e-05
5.3754103e-05
5.3605541e-05
5.3467947e-05
5.3339916e-05
5.3220627e-05
5.3109016e-05
5.3005653e-05
5.2912758e-05
5.2840227e-05
5.2818521e-05
5.2943167e-05
5.3504113e-05
5.5372439e-05
6.1077123e-05
7.7555996e-05
0.00011968795
0.00020819008
0.00037235107
5.9183461e-05
6.3337914e-05
6.1274149e-05
5.8261399e-05
5.6698685e-05
5.5992926e-05
5.5621694e-05
5.5320016e-05
5.5025074e-05
5.4749362e-05
5.4503584e-05
5.4286217e-05
5.4091973e-05
5.391616e-05
5.3755099e-05
5.360663e-05
5.346923e-05
5.3341754e-05
5.3224265e-05
5.3118503e-05
5.3034155e-05
5.3002153e-05
5.3122477e-05
5.3704958e-05
5.5703823e-05
6.2017566e-05
8.1315922e-05
0.00013861321
0.00030058013
0.00070274784
0.0015013326
0.0029468285
5.9752565e-05
6.342843e-05
6.1249884e-05
5.8256849e-05
5.6699314e-05
5.5991239e-05
5.5620468e-05
5.5319717e-05
5.5025239e-05
5.4749809e-05
5.450424e-05
5.428702e-05
5.4092897e-05
5.3917208e-05
5.375632e-05
5.3608306e-05
5.3472389e-05
5.3349924e-05
5.3249281e-05
5.3199137e-05
5.3295847e-05
5.3845304e-05
5.5811002e-05
6.2181833e-05
8.2108001e-05
0.00014300775
0.00032352615
0.00082560125
0.0020481645
0.0043901343
0.0076728823
0.012078284
6.0365004e-05
6.352018e-05
6.1225912e-05
5.8252951e-05
5.6699873e-05
5.5989554e-05
5.5619345e-05
5.5319517e-05
5.5025503e-05
5.4750363e-05
5.4505008e-05
5.4287951e-05
5.4094013e-05
5.3918695e-05
5.3758908e-05
5.3614741e-05
5.3492296e-05
5.3416095e-05
5.3471271e-05
5.3936854e-05
5.5715293e-05
6.1671361e-05
8.0768109e-05
0.00014044106
0.0003212225
0.0008370781
0.0021410877
0.0048334647
0.0090966093
0.01420113
0.01902673
0.024160642
6.1022494e-05
6.3611444e-05
6.1202193e-05
5.8249761e-05
5.6700368e-05
5.5987906e-05
5.5618363e-05
5.5319447e-05
5.5025895e-05
5.4751056e-05
5.4505947e-05
5.4289187e-05
5.4096002e-05
5.3923297e-05
5.3773053e-05
5.3663354e-05
5.366222e-05
5.4003183e-05
5.5464993e-05
6.059e-05
7.7538325e-05
0.00013189829
0.00030067277
0.0007941982
0.0020727119
0.0047756001
0.0091714359
0.014671382
0.020341348
0.025586153
0.030057658
0.034658509
6.1725631e-05
6.3700116e-05
6.1178655e-05
5.8247324e-05
5.6700802e-05
5.5986326e-05
5.5617557e-05
5.5319541e-05
5.5026454e-05
5.4751978e-05
5.4507393e-05
5.4292158e-05
5.4104791e-05
5.3954504e-05
5.3887954e-05
5.4081098e-05
5.5146237e-05
5.9154792e-05
7.2963753e-05
0.00011871564
0.00026513011
0.00070700482
0.0018919185
0.0044820805
0.0088042323
0.014296296
0.020047797
0.02555938
0.030671632
0.035312156
0.03933463
0.043415345
6.2473621e-05
6.3783811e-05
6.1155212e-05
5.8245668e-05
5.6701171e-05
5.598484e-05
5.5616954e-05
5.5319834e-05
5.5027301e-05
5.4753712e-05
5.4512102e-05
5.430906e-05
5.4171149e-05
5.4213027e-05
5.4864446e-05
5.7653877e-05
6.7843282e-05
0.00010305342
0.00022005588
0.0005875312
0.0016200551
0.003994015
0.0081330374
0.013537071
0.01925044
0.024741067
0.029889217
0.034716959
0.03923605
0.043418133
0.047129794
0.050797748
6.3264202e-05
6.3859997e-05
6.1131755e-05
5.8244809e-05
5.6701483e-05
5.5983507e-05
5.5616645e-05
5.5320554e-05
5.5029447e-05
5.4761215e-05
5.4543355e-05
5.4442265e-05
5.4719418e-05
5.6372238e-05
6.3027962e-05
8.7413487e-05
0.00017243193
0.00045293671
0.0012890555
0.0033492452
0.007188015
0.01244164
0.018105444
0.023559357
0.028662942
0.033455668
0.037991088
0.042314456
0.046417612
0.050212765
0.053621488
0.056769015
6.4093858e-05
6.392619e-05
6.1107977e-05
5.8244522e-05
5.6701512e-05
5.5982184e-05
5.5616719e-05
5.5323015e-05
5.5040758e-05
5.4814978e-05
5.4791898e-05
5.5528985e-05
5.9209512e-05
7.4001593e-05
0.00012907372
0.00032227438
0.00094086796
0.0026061636
0.0060097776
0.011022284
0.016624172
0.022056194
0.027125298
0.031869939
0.03635889
0.040651535
0.044740013
0.048623931
0.052265667
0.0554114
0.058429092
0.061004515
6.4958633e-05
6.3981592e-05
6.1084474e-05
5.8245175e-05
5.6701453e-05
5.5981137e-05
5.5618896e-05
5.5338485e-05
5.5124998e-05
5.5240409e-05
5.6786412e-05
6.424831e-05
9.4981326e-05
0.00021194189
0.00062015783
0.0018438761
0.0046682242
0.0092991116
0.014803611
0.020230395
0.025284904
0.029995116
0.034443318
0.03868775
0.042724675
0.046572336
0.050039837
0.053222617
0.056358241
0.059452399
0.062476162
0.065213937
6.5852764e-05
6.4028692e-05
6.1064529e-05
5.8249921e-05
5.6704808e-05
5.5985636e-05
5.5640776e-05
5.54601e-05
5.5788072e-05
5.8596819e-05
7.246161e-05
0.00013194061
0.00036358799
0.0011526684
0.0032750637
0.0073174895
0.012636676
0.018070937
0.023136093
0.027830133
0.032248908
0.036454278
0.040447974
0.04424549
0.047601909
0.050795416
0.05397007
0.057171274
0.060434259
0.063766919
0.067057472
0.07012924
6.6751778e-05
6.4054528e-05
6.1034378e-05
5.8245446e-05
5.670223e-05
5.6001886e-05
5.5785502e-05
5.6374283e-05
6.0890868e-05
8.4380759e-05
0.00019072207
0.00061396268
0.001987299
0.0051852012
0.010127021
0.015556841
0.020665577
0.025367248
0.029768131
0.033945346
0.037908539
0.041669685
0.044952265
0.048162643
0.05138571
0.054650323
0.058045317
0.06156354
0.065184922
0.06885566
0.072441219
0.075798906
6.7656614e-05
6.4091676e-05
6.1020329e-05
5.8248711e-05
5.6719859e-05
5.615901e-05
5.6902012e-05
6.3304808e-05
9.9224213e-05
0.00027271881
0.00097700264
0.00310772
0.0073102573
0.012643049
0.017837363
0.022584512
0.026985655
0.031150576
0.035097608
0.038830847
0.042084879
0.045320283
0.048592428
0.051945967
0.055449048
0.059074044
0.062839038
0.06670965
0.070643775
0.074558899
0.078302172
0.081845919
6.8531741e-05
6.4151896e-05
6.1036852e-05
5.8276285e-05
5.6864995e-05
5.7313005e-05
6.5025158e-05
0.00011331469
0.00036522629
0.0014082189
0.0043218638
0.0091936117
0.014509074
0.019396235
0.023860149
0.028053041
0.032019239
0.035780548
0.039064694
0.042320007
0.045622662
0.049043825
0.0526237
0.056341989
0.060200095
0.064159585
0.068189671
0.072258689
0.076331716
0.080333594
0.084075925
0.08769254
6.9319911e-05
6.4212892e-05
6.1070932e-05
5.8384246e-05
5.7794971e-05
6.4918775e-05
0.00011830574
0.00042594223
0.0017489406
0.0052392874
0.010383312
0.015500826
0.020121404
0.024391007
0.028412675
0.032226404
0.035615825
0.038896875
0.042227623
0.045697156
0.049334009
0.053129282
0.057063355
0.061094801
0.065189843
0.06931927
0.073455302
0.077572926
0.081645008
0.085607761
0.089307864
0.092848237
7.0034232e-05
6.4292996e-05
6.1170014e-05
5.8994169e-05
6.3378852e-05
0.00011022795
0.00041985368
0.0018602702
0.0056352602
0.010816101
0.015726473
0.020145683
0.024273442
0.028169615
0.03173185
0.035037551
0.038386855
0.041874106
0.045542637
0.049388091
0.053379316
0.057470661
0.061622789
0.065802285
0.069979855
0.07413324
0.078244192
0.082294684
0.086263713
0.09009636
0.093721948
0.097099964
7.0683003e-05
6.4409686e-05
6.15405e-05
6.2243304e-05
9.368015e-05
0.00034575637
0.0016906246
0.0054593873
0.010576566
0.015326607
0.01960912
0.02362214
0.027430144
0.030795381
0.034156251
0.037629624
0.041302026
0.045164976
0.049189858
0.053324449
0.057523088
0.061746592
0.06596272
0.070146828
0.074279445
0.078344952
0.082331359
0.086226161
0.090013508
0.093646611
0.097107442
0.10031096
7.1267747e-05
6.4639794e-05
6.3147013e-05
7.8186509e-05
0.00023944179
0.0012922777
0.0047566583
0.009759403
0.01440339
0.018599526
0.022536307
0.026188611
0.029571296
0.033013969
0.036658315
0.040502514
0.04453634
0.048697365
0.052932603
0.057195771
0.061449836
0.065666353
0.069823279
0.073903596
0.077894697
0.0817866
0.085571693
0.089241917
0.092786304
0.096166908
0.099392188
0.10241335
7.1793378e-05
6.5295604e-05
7.0031696e-05
0.0001488001
0.00081065358
0.0036455082
0.008448215
0.013032395
0.017180164
0.021078094
0.024632186
0.028087571
0.031660015
0.035447786
0.039456953
0.043622499
0.047882858
0.052182435
0.056476453
0.060730866
0.064919666
0.069023255
0.073027143
0.076920446
0.080695531
0.084347176
0.087871925
0.09126583
0.094522638
0.09761384
0.10056432
0.10339968
7.2276523e-05
6.7531331e-05
9.7471326e-05
0.00041685183
0.0023453856
0.0067249652
0.011271391
0.015398025
0.019287641
0.022819167
0.026353201
0.03006409
0.033997244
0.038134728
0.042402169
0.04673213
0.051068057
0.055367743
0.059599263
0.063738933
0.067769309
0.071677634
0.075455204
0.079096485
0.082598523
0.085960436
0.089182783
0.092265489
0.095206739
0.09798744
0.10064854
0.10330465
7.2770617e-05
7.5267344e-05
0.00019515228
0.0011942952
0.0047125415
0.0091732823
0.013289806
0.017192128
0.020756439
0.024376582
0.028209582
0.03227442
0.036519624
0.040866443
0.045243529
0.049596192
0.053883264
0.058074808
0.062149206
0.066090829
0.069889042
0.073537207
0.077032055
0.080373073
0.08356184
0.086601472
0.089496088
0.092248989
0.09486227
0.09732547
0.099698848
0.10219307
7.3439966e-05
0.00010045528
0.00048408735
0.0026789859
0.0068117468
0.01089346
0.014810684
0.018443994
0.022158498
0.026097672
0.030272146
0.034606851
0.039016104
0.043426396
0.047782664
0.052044773
0.056184439
0.060181726
0.064023197
0.06770041
0.071209148
0.07454868
0.077721034
0.080730353
0.083582252
0.086283225
0.088840212
0.091259138
0.093545306
0.095695259
0.097793475
0.10015115
7.4762545e-05
0.00017381835
0.0011316691
0.0043394435
0.0082731567
0.01216621
0.015879441
0.019692786
0.023726047
0.027992312
0.032402661
0.036863175
0.041297482
0.045649374
0.049879266
0.053959566
0.057872016
0.061605466
0.065154175
0.068516719
0.071695181
0.074694387
0.077521124
0.08018347
0.082690233
0.08505042
0.087272911
0.089365429
0.091335722
0.093184964
0.09502819
0.097278854
7.8036047e-05
0.00035287668
0.0021241424
0.0055651913
0.0093126459
0.013067208
0.016971061
0.021088069
0.025434343
0.029913527
0.034421639
0.038877036
0.043221838
0.047416398
0.051433945
0.055257663
0.058878657
0.062294383
0.065506782
0.068521156
0.071345322
0.073988839
0.076462285
0.078776664
0.080942971
0.082971795
0.084873092
0.086655595
0.088328765
0.089895868
0.091509113
0.093682826
8.647721e-05
0.00069545936
0.0030569118
0.0063838744
0.010043864
0.013990787
0.018176278
0.022595709
0.027143928
0.031703501
0.036184522
0.040525465
0.044686491
0.048641905
0.052376558
0.055884097
0.059165226
0.062225965
0.065075445
0.067724789
0.070186423
0.072473446
0.074599051
0.076576076
0.078416723
0.080132293
0.081733039
0.083228035
0.084627811
0.085936608
0.087346192
0.089470486
0.00010689757
0.0011615935
0.0036717592
0.0069347976
0.010779942
0.014989968
0.019473217
0.024096054
0.028718086
0.033236516
0.037583896
0.041718661
0.045616828
0.049265705
0.052661888
0.055809783
0.058719568
0.061405082
0.063881382
0.066163953
0.068268407
0.070210076
0.072003604
0.07366265
0.075199751
0.076626181
0.077951845
0.079185632
0.080338625
0.081420102
0.082647722
0.084745453
0.00013571204
0.0015408045
0.0040383347
0.007465945
0.01155717
0.016069392
0.020769427
0.025470712
0.030045585
0.034416764
0.038539507
0.042390247
0.045960221
0.049250147
0.052268688
0.05503066
0.057554621
0.05986066
0.061967944
0.063894627
0.065658071
0.067274626
0.068759357
0.070125876
0.071386353
0.072551451
0.073630214
0.074630984
0.075565024
0.076452854
0.077516125
0.079604397
0.00015621558
0.0017281169
0.0043518007
0.0080250788
0.012415442
0.017164893
0.021960575
0.026618342
0.031038404
0.035170473
0.038990618
0.042492823
0.045684386
0.048579727
0.051198898
0.053565634
0.055704913
0.05764103
0.059395224
0.060986697
0.062433299
0.063751376
0.064955567
0.066058764
0.067072233
0.068005604
0.068866691
0.069663079
0.070405947
0.071126842
0.072046038
0.074135324
0.00016649529
0.0018474103
0.0046837057
0.0086096294
0.013296407
0.01818078
0.022951697
0.027455695
0.03162676
0.035440324
0.038892915
0.041997309
0.044777494
0.047260435
0.049475535
0.051453086
0.053222096
0.054808895
0.056234834
0.057518797
0.058678133
0.059728386
0.060683131
0.061554046
0.062351132
0.063082714
0.063755141
0.064375175
0.064953703
0.065528567
0.066324473
0.068417004
0.00016996721
0.0019723596
0.0050267694
0.0092375981
0.014129731
0.019031386
0.023663407
0.027915376
0.031754991
0.035183194
0.038218537
0.040893553
0.043247796
0.045317844
0.047139493
0.048746841
0.05017049
0.051436793
0.052565514
0.053574227
0.054479078
0.055294228
0.056031745
0.056701773
0.057312847
0.057871842
0.058383552
0.058853956
0.059293455
0.059742269
0.060431396
0.062519287
0.00017213435
0.0021002902
0.0053786395
0.00986877
0.014845908
0.019642197
0.024029939
0.027942133
0.031379512
0.0343706
0.036957211
0.039190454
0.041122196
0.042794445
0.044246122
0.045512423
0.046623323
0.047603517
0.048469887
0.049238118
0.049922689
0.050535998
0.051088326
0.051588133
0.052042409
0.052456557
0.052833834
0.05317957
0.053503512
0.053845635
0.054440082
0.056504036
0.00017462792
0.0022266757
0.0057349861
0.010431793
0.015370943
0.019947133
0.023995307
0.02749053
0.030469446
0.032990453
0.035117142
0.036915337
0.038444357
0.039746999
0.040862281
0.041824094
0.042659964
0.043391675
0.044032392
0.044595733
0.04509424
0.045538313
0.045936339
0.046295067
0.046619979
0.04691509
0.047182281
0.047426363
0.047656296
0.047909849
0.048418081
0.05042754
0.00017700201
0.0023474087
0.0060670563
0.010856385
0.015636784
0.019888073
0.023511159
0.026525746
0.029009286
0.031049176
0.032725639
0.034113243
0.035273139
0.036244555
0.037064258
0.037762892
0.038364215
0.038886328
0.039338446
0.03973214
0.040077839
0.040383861
0.04065672
0.040901544
0.041122429
0.041322203
0.041501776
0.041665355
0.041821019
0.042002437
0.042430165
0.044345494
0.00017832957
0.0024533414
0.0063332723
0.01107898
0.015584515
0.019413683
0.022537774
0.025027442
0.027002846
0.028574091
0.029829833
0.030846465
0.031681519
0.032367483
0.032937141
0.033416461
0.03382466
0.034175856
0.034475956
0.03473428
0.034958999
0.035156401
0.035331277
0.035487311
0.035627401
0.035753493
0.035866116
0.035968509
0.036067742
0.036191783
0.036542828
0.038318077
0.00017765251
0.0025276506
0.0064862355
0.011044788
0.015162155
0.01847965
0.021049092
0.022996068
0.024478006
0.025616305
0.026498455
0.027195809
0.02775783
0.028209293
0.028577251
0.028882108
0.029138326
0.029356189
0.029539701
0.029695346
0.029828996
0.029945113
0.030047011
0.03013718
0.030217542
0.030289367
0.030352968
0.030410693
0.030468323
0.030548251
0.030825525
0.032408414
0.00017396968
0.0025485186
0.0064757387
0.010707504
0.014322956
0.01705382
0.019041537
0.02046137
0.021493014
0.022255338
0.022825772
0.023264385
0.023609838
0.023880524
0.024095801
0.02427028
0.024414048
0.024534057
0.024632881
0.02471464
0.024783236
0.024841615
0.024891914
0.024935692
0.024974125
0.025007969
0.025037353
0.025063892
0.025091852
0.02513977
0.025347584
0.026685562
0.00016624679
0.0024906368
0.0062519442
0.010024194
0.013030211
0.015129102
0.016548038
0.017494207
0.018145527
0.018605893
0.018936426
0.019181277
0.019367742
0.019508323
0.019615517
0.019698866
0.019764829
0.019817707
0.019858912
0.019890859
0.019915943
0.019935947
0.019952126
0.01996536
0.019976288
0.019985298
0.019992374
0.019998586
0.020006956
0.020032866
0.020179823
0.021233218
0.00015352385
0.0023277048
0.0057683853
0.0089546514
0.011274959
0.012747529
0.013659222
0.014221459
0.014582889
0.014823048
0.014984695
0.015096691
0.0151763
0.015230963
0.015268022
0.015293135
0.015310022
0.01532105
0.015326775
0.015328446
0.015327387
0.015324563
0.015320614
0.015315959
0.015310882
0.015305528
0.015299798
0.015294387
0.015291512
0.015302757
0.015401428
0.016162474
0.00013515645
0.0020384534
0.0049922592
0.00748744
0.0091107725
0.010033195
0.010547158
0.010832989
0.010998306
0.011096024
0.011152321
0.011183939
0.011200526
0.011205782
0.011203547
0.011196799
0.011187411
0.011176487
0.011164056
0.011150635
0.01113686
0.011123173
0.011109832
0.011096974
0.011084678
0.011072951
0.011061661
0.011051251
0.011043317
0.011045697
0.011108942
0.01161023
0.00011128992
0.0016186936
0.0039307502
0.0056911383
0.0066977935
0.0071995002
0.0074425832
0.0075559219
0.0076070059
0.0076261998
0.0076272922
0.0076187534
0.0076052326
0.0075881158
0.0075690945
0.007549499
0.007530102
0.0075112816
0.0074928246
0.0074748596
0.0074576275
0.0074412747
0.0074258546
0.0074113657
0.0073977845
0.0073850582
0.0073730595
0.0073620606
0.0073531368
0.0073514238
0.0073902924
0.0076894075
8.3602015e-05
0.0011016076
0.0026717929
0.0037435048
0.0042760506
0.0045010329
0.0045870583
0.004610951
0.0046085064
0.0045944216
0.0045747163
0.0045529708
0.0045310031
0.0045090454
0.004487644
0.0044672471
0.0044480581
0.0044301087
0.0044131396
0.0043971118
0.0043820698
0.0043680206
0.0043549331
0.0043427556
0.0043314325
0.0043208992
0.0043110577
0.0043020635
0.004294606
0.0042920434
0.0043154545
0.0044769421
5.6126056e-05
0.00057870037
0.0014119677
0.0019262789
0.0021484931
0.0022189069
0.0022287128
0.0022164348
0.0021967587
0.0021750971
0.0021533261
0.0021325127
0.002113094
0.002094881
0.0020779066
0.0020622126
0.0020477624
0.0020344668
0.0020221209
0.0020106377
0.0019999828
0.0019901145
0.0019809816
0.0019725295
0.0019647062
0.0019574595
0.0019507303
0.0019445968
0.0019395078
0.0019376526
0.0019530725
0.0020419671
3.4175242e-05
0.00016938973
0.00039013826
0.00051077616
0.00055288001
0.00055890555
0.00055207076
0.00054125611
0.00052989508
0.00051907964
0.00050906001
0.00049994794
0.00049173194
0.00048425873
0.0004774587
0.00047128436
0.00046567992
0.0004605845
0.00045591227
0.00045161452
0.00044766215
0.00044402815
0.00044068587
0.00043760968
0.00043477638
0.00043216392
0.00042975213
0.00042756062
0.00042575494
0.00042514907
0.00043156657
0.0004756936
2.0867198e-05
1.3877837e-05
2.4213815e-05
3.0124041e-05
3.1942826e-05
3.1845089e-05
3.1106222e-05
3.0211467e-05
2.9341127e-05
2.8544785e-05
2.7826959e-05
2.7186876e-05
2.6618412e-05
2.610846e-05
2.5649718e-05
2.5237014e-05
2.4865293e-05
2.4529601e-05
2.4223856e-05
2.3944298e-05
2.3688508e-05
2.3454349e-05
2.3239821e-05
2.304306e-05
2.2862412e-05
2.2696327e-05
2.2543534e-05
2.2404958e-05
2.2291591e-05
2.2256616e-05
2.2712541e-05
2.6857781e-05
1.89823e-05
4.6075609e-06
3.6666099e-06
3.5169141e-06
3.417129e-06
3.3050615e-06
3.19421e-06
3.092421e-06
3.0021855e-06
2.9230482e-06
2.8536131e-06
2.7927216e-06
2.7392174e-06
2.6917442e-06
2.6493689e-06
2.611418e-06
2.5773294e-06
2.546602e-06
2.5187128e-06
2.4932848e-06
2.4700531e-06
2.4487996e-06
2.4293312e-06
2.4114749e-06
2.3950804e-06
2.3800039e-06
2.3661847e-06
2.3536402e-06
2.3438077e-06
2.3414465e-06
2.3941951e-06
3.0442565e-06
3.3441713e-06
6.8304345e-07
3.7106633e-07
2.8569613e-07
2.7734537e-07
2.8857654e-07
2.9833493e-07
3.027009e-07
3.0237191e-07
2.9890602e-07
2.9370923e-07
2.8771111e-07
2.8149169e-07
2.753838e-07
2.695585e-07
2.6407012e-07
2.5892893e-07
2.5413879e-07
2.4969779e-07
2.4560186e-07
2.4184383e-07
2.3841701e-07
2.3532018e-07
2.3255901e-07
2.3016239e-07
2.2819664e-07
2.2679683e-07
2.2624338e-07
2.2733206e-07
2.3203824e-07
2.5272004e-07
4.3914513e-07
3.1211021e-06
6.2955387e-07
3.8481891e-07
5.9759581e-07
1.0316651e-06
1.4034249e-06
1.6320614e-06
1.747746e-06
1.7887719e-06
1.7868182e-06
1.7626515e-06
1.7278344e-06
1.6890129e-06
1.649741e-06
1.6117231e-06
1.5754647e-06
1.5411117e-06
1.5088026e-06
1.4786206e-06
1.450573e-06
1.4246132e-06
1.4006791e-06
1.3786988e-06
1.3585962e-06
1.3404454e-06
1.3245062e-06
1.3113258e-06
1.3021295e-06
1.2999895e-06
1.3164606e-06
1.4150262e-06
2.2118937e-06
3.6139128e-06
9.536876e-07
2.0972418e-06
1.0741393e-05
2.4055991e-05
3.495086e-05
4.156841e-05
4.4931308e-05
4.6172971e-05
4.6206551e-05
4.5619356e-05
4.473318e-05
4.3731873e-05
4.2713274e-05
4.1724112e-05
4.0778233e-05
3.9879881e-05
3.9033264e-05
3.8241054e-05
3.7503686e-05
3.6820039e-05
3.6188508e-05
3.5607033e-05
3.5073247e-05
3.4588716e-05
3.4159629e-05
3.3799105e-05
3.3536803e-05
3.3443206e-05
3.381351e-05
3.6202251e-05
5.2696782e-05
4.6530266e-06
2.7983684e-06
1.6757415e-05
0.00010291215
0.00023386002
0.0003376999
0.00039951814
0.00043105353
0.00044345748
0.00044515977
0.00044136367
0.00043484557
0.0004271851
0.00041922797
0.00041138627
0.00040379056
0.00039649144
0.00038954121
0.00038297792
0.00037681795
0.00037106217
0.00036570565
0.0003607372
0.00035614048
0.00035193317
0.00034817195
0.00034497098
0.00034258203
0.00034153632
0.00034431601
0.00036301004
0.00046777551
5.8170899e-06
6.4112608e-06
5.5591065e-05
0.00037050922
0.00086051307
0.0012446007
0.00147416
0.001595337
0.0016496927
0.0016670764
0.0016652999
0.0016536632
0.0016374092
0.0016193446
0.0016008613
0.0015824354
0.0015642911
0.0015466661
0.0015297453
0.0015136342
0.0014983793
0.0014840009
0.0014704879
0.0014577977
0.0014459889
0.0014352256
0.0014258183
0.0014184362
0.001414114
0.00141946
0.001463579
0.0017057632
7.0868807e-06
1.1250639e-05
0.00011026534
0.00073113462
0.0017090603
0.0025351454
0.003070201
0.0033775241
0.0035355134
0.0036074183
0.0036328141
0.0036331037
0.0036205559
0.0036018336
0.0035803322
0.0035573377
0.0035335194
0.0035095383
0.0034859117
0.0034629627