/*--------------------------------*- C++ -*----------------------------------*\
| =========                 |                                                 |
| \\      /  F ield         | OpenFOAM: The Open Source CFD Toolbox           |
|  \\    /   O peration     | Version:  2212                                  |
|   \\  /    A nd           | Website:  www.openfoam.com                      |
|    \\/     M anipulation  |                                                 |
\*---------------------------------------------------------------------------*/
FoamFile
{
    version     2.0;
    format      ascii;
    arch        "LSB;label=32;scalar=64";
    class       volVectorField;
    location    "0";
    object      C;
}
// * * * * * * * * * * * * * * * * * * * * * * * * * * * * * * * * * * * * * //

dimensions      [0 1 0 0 0 0 0];

internalField   nonuniform List<vector> 
20480
(
(-9.84365 -0.5 0.00680157)
(-9.53097 -0.5 0.00680157)
(-9.21829 -0.5 0.00680157)
(-8.90563 -0.5 0.00680157)
(-8.59298 -0.5 0.00680157)
(-8.28034 -0.5 0.00680157)
(-7.96772 -0.5 0.00680157)
(-7.6551 -0.5 0.00680157)
(-7.3425 -0.5 0.00680157)
(-7.02992 -0.5 0.00680157)
(-6.71734 -0.5 0.00680157)
(-6.40478 -0.5 0.00680157)
(-6.09223 -0.5 0.00680157)
(-5.77969 -0.5 0.00680157)
(-5.46717 -0.5 0.00680157)
(-5.15465 -0.5 0.00680157)
(-4.84215 -0.5 0.00680157)
(-4.52967 -0.5 0.00680157)
(-4.21719 -0.5 0.00680157)
(-3.90473 -0.5 0.00680157)
(-3.59228 -0.5 0.00680157)
(-3.27984 -0.5 0.00680157)
(-2.96742 -0.5 0.00680157)
(-2.655 -0.5 0.00680157)
(-2.3426 -0.5 0.00680157)
(-2.03022 -0.5 0.00680157)
(-1.71784 -0.5 0.00680157)
(-1.40548 -0.5 0.00680157)
(-1.09313 -0.5 0.00680157)
(-0.780791 -0.5 0.00680157)
(-0.468466 -0.5 0.00680157)
(-0.156153 -0.5 0.00680157)
(-9.84365 -0.5 0.0203421)
(-9.53097 -0.5 0.0203421)
(-9.21829 -0.5 0.0203421)
(-8.90563 -0.5 0.0203421)
(-8.59298 -0.5 0.0203421)
(-8.28034 -0.5 0.0203421)
(-7.96772 -0.5 0.0203421)
(-7.6551 -0.5 0.0203421)
(-7.3425 -0.5 0.0203421)
(-7.02992 -0.5 0.0203421)
(-6.71734 -0.5 0.0203421)
(-6.40478 -0.5 0.0203421)
(-6.09223 -0.5 0.0203421)
(-5.77969 -0.5 0.0203421)
(-5.46717 -0.5 0.0203421)
(-5.15465 -0.5 0.0203421)
(-4.84215 -0.5 0.0203421)
(-4.52967 -0.5 0.0203421)
(-4.21719 -0.5 0.0203421)
(-3.90473 -0.5 0.0203421)
(-3.59228 -0.5 0.0203421)
(-3.27984 -0.5 0.0203421)
(-2.96742 -0.5 0.0203421)
(-2.655 -0.5 0.0203421)
(-2.3426 -0.5 0.0203421)
(-2.03022 -0.5 0.0203421)
(-1.71784 -0.5 0.0203421)
(-1.40548 -0.5 0.0203421)
(-1.09313 -0.5 0.0203421)
(-0.780791 -0.5 0.0203421)
(-0.468466 -0.5 0.0203421)
(-0.156153 -0.5 0.0203421)
(-9.84365 -0.5 0.033758)
(-9.53097 -0.5 0.033758)
(-9.21829 -0.5 0.033758)
(-8.90563 -0.5 0.033758)
(-8.59298 -0.5 0.033758)
(-8.28034 -0.5 0.033758)
(-7.96772 -0.5 0.033758)
(-7.6551 -0.5 0.033758)
(-7.3425 -0.5 0.033758)
(-7.02992 -0.5 0.033758)
(-6.71734 -0.5 0.033758)
(-6.40478 -0.5 0.033758)
(-6.09223 -0.5 0.033758)
(-5.77969 -0.5 0.033758)
(-5.46717 -0.5 0.033758)
(-5.15465 -0.5 0.033758)
(-4.84215 -0.5 0.033758)
(-4.52967 -0.5 0.033758)
(-4.21719 -0.5 0.033758)
(-3.90473 -0.5 0.033758)
(-3.59228 -0.5 0.033758)
(-3.27984 -0.5 0.033758)
(-2.96742 -0.5 0.033758)
(-2.655 -0.5 0.033758)
(-2.3426 -0.5 0.033758)
(-2.03022 -0.5 0.033758)
(-1.71784 -0.5 0.033758)
(-1.40548 -0.5 0.033758)
(-1.09313 -0.5 0.033758)
(-0.780791 -0.5 0.033758)
(-0.468466 -0.5 0.033758)
(-0.156153 -0.5 0.033758)
(-9.84365 -0.5 0.0470503)
(-9.53097 -0.5 0.0470503)
(-9.21829 -0.5 0.0470503)
(-8.90563 -0.5 0.0470503)
(-8.59298 -0.5 0.0470503)
(-8.28034 -0.5 0.0470503)
(-7.96772 -0.5 0.0470503)
(-7.6551 -0.5 0.0470503)
(-7.3425 -0.5 0.0470503)
(-7.02992 -0.5 0.0470503)
(-6.71734 -0.5 0.0470503)
(-6.40478 -0.5 0.0470503)
(-6.09223 -0.5 0.0470503)
(-5.77969 -0.5 0.0470503)
(-5.46717 -0.5 0.0470503)
(-5.15465 -0.5 0.0470503)
(-4.84215 -0.5 0.0470503)
(-4.52967 -0.5 0.0470503)
(-4.21719 -0.5 0.0470503)
(-3.90473 -0.5 0.0470503)
(-3.59228 -0.5 0.0470503)
(-3.27984 -0.5 0.0470503)
(-2.96742 -0.5 0.0470503)
(-2.655 -0.5 0.0470503)
(-2.3426 -0.5 0.0470503)
(-2.03022 -0.5 0.0470503)
(-1.71784 -0.5 0.0470503)
(-1.40548 -0.5 0.0470503)
(-1.09313 -0.5 0.0470503)
(-0.780791 -0.5 0.0470503)
(-0.468466 -0.5 0.0470503)
(-0.156153 -0.5 0.0470503)
(-9.84365 -0.5 0.0602202)
(-9.53097 -0.5 0.0602202)
(-9.21829 -0.5 0.0602202)
(-8.90563 -0.5 0.0602202)
(-8.59298 -0.5 0.0602202)
(-8.28034 -0.5 0.0602202)
(-7.96772 -0.5 0.0602202)
(-7.6551 -0.5 0.0602202)
(-7.3425 -0.5 0.0602202)
(-7.02992 -0.5 0.0602202)
(-6.71734 -0.5 0.0602202)
(-6.40478 -0.5 0.0602202)
(-6.09223 -0.5 0.0602202)
(-5.77969 -0.5 0.0602202)
(-5.46717 -0.5 0.0602202)
(-5.15465 -0.5 0.0602202)
(-4.84215 -0.5 0.0602202)
(-4.52967 -0.5 0.0602202)
(-4.21719 -0.5 0.0602202)
(-3.90473 -0.5 0.0602202)
(-3.59228 -0.5 0.0602202)
(-3.27984 -0.5 0.0602202)
(-2.96742 -0.5 0.0602202)
(-2.655 -0.5 0.0602202)
(-2.3426 -0.5 0.0602202)
(-2.03022 -0.5 0.0602202)
(-1.71784 -0.5 0.0602202)
(-1.40548 -0.5 0.0602202)
(-1.09313 -0.5 0.0602202)
(-0.780791 -0.5 0.0602202)
(-0.468466 -0.5 0.0602202)
(-0.156153 -0.5 0.0602202)
(-9.84365 -0.5 0.0732689)
(-9.53097 -0.5 0.0732689)
(-9.21829 -0.5 0.0732689)
(-8.90563 -0.5 0.0732689)
(-8.59298 -0.5 0.0732689)
(-8.28034 -0.5 0.0732689)
(-7.96772 -0.5 0.0732689)
(-7.6551 -0.5 0.0732689)
(-7.3425 -0.5 0.0732689)
(-7.02992 -0.5 0.0732689)
(-6.71734 -0.5 0.0732689)
(-6.40478 -0.5 0.0732689)
(-6.09223 -0.5 0.0732689)
(-5.77969 -0.5 0.0732689)
(-5.46717 -0.5 0.0732689)
(-5.15465 -0.5 0.0732689)
(-4.84215 -0.5 0.0732689)
(-4.52967 -0.5 0.0732689)
(-4.21719 -0.5 0.0732689)
(-3.90473 -0.5 0.0732689)
(-3.59228 -0.5 0.0732689)
(-3.27984 -0.5 0.0732689)
(-2.96742 -0.5 0.0732689)
(-2.655 -0.5 0.0732689)
(-2.3426 -0.5 0.0732689)
(-2.03022 -0.5 0.0732689)
(-1.71784 -0.5 0.0732689)
(-1.40548 -0.5 0.0732689)
(-1.09313 -0.5 0.0732689)
(-0.780791 -0.5 0.0732689)
(-0.468466 -0.5 0.0732689)
(-0.156153 -0.5 0.0732689)
(-9.84365 -0.5 0.0861974)
(-9.53097 -0.5 0.0861974)
(-9.21829 -0.5 0.0861974)
(-8.90563 -0.5 0.0861974)
(-8.59298 -0.5 0.0861974)
(-8.28034 -0.5 0.0861974)
(-7.96772 -0.5 0.0861974)
(-7.6551 -0.5 0.0861974)
(-7.3425 -0.5 0.0861974)
(-7.02992 -0.5 0.0861974)
(-6.71734 -0.5 0.0861974)
(-6.40478 -0.5 0.0861974)
(-6.09223 -0.5 0.0861974)
(-5.77969 -0.5 0.0861974)
(-5.46717 -0.5 0.0861974)
(-5.15465 -0.5 0.0861974)
(-4.84215 -0.5 0.0861974)
(-4.52967 -0.5 0.0861974)
(-4.21719 -0.5 0.0861974)
(-3.90473 -0.5 0.0861974)
(-3.59228 -0.5 0.0861974)
(-3.27984 -0.5 0.0861974)
(-2.96742 -0.5 0.0861974)
(-2.655 -0.5 0.0861974)
(-2.3426 -0.5 0.0861974)
(-2.03022 -0.5 0.0861974)
(-1.71784 -0.5 0.0861974)
(-1.40548 -0.5 0.0861974)
(-1.09313 -0.5 0.0861974)
(-0.780791 -0.5 0.0861974)
(-0.468466 -0.5 0.0861974)
(-0.156153 -0.5 0.0861974)
(-9.84365 -0.5 0.0990069)
(-9.53097 -0.5 0.0990069)
(-9.21829 -0.5 0.0990069)
(-8.90563 -0.5 0.0990069)
(-8.59298 -0.5 0.0990069)
(-8.28034 -0.5 0.0990069)
(-7.96772 -0.5 0.0990069)
(-7.6551 -0.5 0.0990069)
(-7.3425 -0.5 0.0990069)
(-7.02992 -0.5 0.0990069)
(-6.71734 -0.5 0.0990069)
(-6.40478 -0.5 0.0990069)
(-6.09223 -0.5 0.0990069)
(-5.77969 -0.5 0.0990069)
(-5.46717 -0.5 0.0990069)
(-5.15465 -0.5 0.0990069)
(-4.84215 -0.5 0.0990069)
(-4.52967 -0.5 0.0990069)
(-4.21719 -0.5 0.0990069)
(-3.90473 -0.5 0.0990069)
(-3.59228 -0.5 0.0990069)
(-3.27984 -0.5 0.0990069)
(-2.96742 -0.5 0.0990069)
(-2.655 -0.5 0.0990069)
(-2.3426 -0.5 0.0990069)
(-2.03022 -0.5 0.0990069)
(-1.71784 -0.5 0.0990069)
(-1.40548 -0.5 0.0990069)
(-1.09313 -0.5 0.0990069)
(-0.780791 -0.5 0.0990069)
(-0.468466 -0.5 0.0990069)
(-0.156153 -0.5 0.0990069)
(-9.84365 -0.5 0.111698)
(-9.53097 -0.5 0.111698)
(-9.21829 -0.5 0.111698)
(-8.90563 -0.5 0.111698)
(-8.59298 -0.5 0.111698)
(-8.28034 -0.5 0.111698)
(-7.96772 -0.5 0.111698)
(-7.6551 -0.5 0.111698)
(-7.3425 -0.5 0.111698)
(-7.02992 -0.5 0.111698)
(-6.71734 -0.5 0.111698)
(-6.40478 -0.5 0.111698)
(-6.09223 -0.5 0.111698)
(-5.77969 -0.5 0.111698)
(-5.46717 -0.5 0.111698)
(-5.15465 -0.5 0.111698)
(-4.84215 -0.5 0.111698)
(-4.52967 -0.5 0.111698)
(-4.21719 -0.5 0.111698)
(-3.90473 -0.5 0.111698)
(-3.59228 -0.5 0.111698)
(-3.27984 -0.5 0.111698)
(-2.96742 -0.5 0.111698)
(-2.655 -0.5 0.111698)
(-2.3426 -0.5 0.111698)
(-2.03022 -0.5 0.111698)
(-1.71784 -0.5 0.111698)
(-1.40548 -0.5 0.111698)
(-1.09313 -0.5 0.111698)
(-0.780791 -0.5 0.111698)
(-0.468466 -0.5 0.111698)
(-0.156153 -0.5 0.111698)
(-9.84365 -0.5 0.124273)
(-9.53097 -0.5 0.124273)
(-9.21829 -0.5 0.124273)
(-8.90563 -0.5 0.124273)
(-8.59298 -0.5 0.124273)
(-8.28034 -0.5 0.124273)
(-7.96772 -0.5 0.124273)
(-7.6551 -0.5 0.124273)
(-7.3425 -0.5 0.124273)
(-7.02992 -0.5 0.124273)
(-6.71734 -0.5 0.124273)
(-6.40478 -0.5 0.124273)
(-6.09223 -0.5 0.124273)
(-5.77969 -0.5 0.124273)
(-5.46717 -0.5 0.124273)
(-5.15465 -0.5 0.124273)
(-4.84215 -0.5 0.124273)
(-4.52967 -0.5 0.124273)
(-4.21719 -0.5 0.124273)
(-3.90473 -0.5 0.124273)
(-3.59228 -0.5 0.124273)
(-3.27984 -0.5 0.124273)
(-2.96742 -0.5 0.124273)
(-2.655 -0.5 0.124273)
(-2.3426 -0.5 0.124273)
(-2.03022 -0.5 0.124273)
(-1.71784 -0.5 0.124273)
(-1.40548 -0.5 0.124273)
(-1.09313 -0.5 0.124273)
(-0.780791 -0.5 0.124273)
(-0.468466 -0.5 0.124273)
(-0.156153 -0.5 0.124273)
(-9.84365 -0.5 0.136732)
(-9.53097 -0.5 0.136732)
(-9.21829 -0.5 0.136732)
(-8.90563 -0.5 0.136732)
(-8.59298 -0.5 0.136732)
(-8.28034 -0.5 0.136732)
(-7.96772 -0.5 0.136732)
(-7.6551 -0.5 0.136732)
(-7.3425 -0.5 0.136732)
(-7.02992 -0.5 0.136732)
(-6.71734 -0.5 0.136732)
(-6.40478 -0.5 0.136732)
(-6.09223 -0.5 0.136732)
(-5.77969 -0.5 0.136732)
(-5.46717 -0.5 0.136732)
(-5.15465 -0.5 0.136732)
(-4.84215 -0.5 0.136732)
(-4.52967 -0.5 0.136732)
(-4.21719 -0.5 0.136732)
(-3.90473 -0.5 0.136732)
(-3.59228 -0.5 0.136732)
(-3.27984 -0.5 0.136732)
(-2.96742 -0.5 0.136732)
(-2.655 -0.5 0.136732)
(-2.3426 -0.5 0.136732)
(-2.03022 -0.5 0.136732)
(-1.71784 -0.5 0.136732)
(-1.40548 -0.5 0.136732)
(-1.09313 -0.5 0.136732)
(-0.780791 -0.5 0.136732)
(-0.468466 -0.5 0.136732)
(-0.156153 -0.5 0.136732)
(-9.84365 -0.5 0.149076)
(-9.53097 -0.5 0.149076)
(-9.21829 -0.5 0.149076)
(-8.90563 -0.5 0.149076)
(-8.59298 -0.5 0.149076)
(-8.28034 -0.5 0.149076)
(-7.96772 -0.5 0.149076)
(-7.6551 -0.5 0.149076)
(-7.3425 -0.5 0.149076)
(-7.02992 -0.5 0.149076)
(-6.71734 -0.5 0.149076)
(-6.40478 -0.5 0.149076)
(-6.09223 -0.5 0.149076)
(-5.77969 -0.5 0.149076)
(-5.46717 -0.5 0.149076)
(-5.15465 -0.5 0.149076)
(-4.84215 -0.5 0.149076)
(-4.52967 -0.5 0.149076)
(-4.21719 -0.5 0.149076)
(-3.90473 -0.5 0.149076)
(-3.59228 -0.5 0.149076)
(-3.27984 -0.5 0.149076)
(-2.96742 -0.5 0.149076)
(-2.655 -0.5 0.149076)
(-2.3426 -0.5 0.149076)
(-2.03022 -0.5 0.149076)
(-1.71784 -0.5 0.149076)
(-1.40548 -0.5 0.149076)
(-1.09313 -0.5 0.149076)
(-0.780791 -0.5 0.149076)
(-0.468466 -0.5 0.149076)
(-0.156153 -0.5 0.149076)
(-9.84365 -0.5 0.161307)
(-9.53097 -0.5 0.161307)
(-9.21829 -0.5 0.161307)
(-8.90563 -0.5 0.161307)
(-8.59298 -0.5 0.161307)
(-8.28034 -0.5 0.161307)
(-7.96772 -0.5 0.161307)
(-7.6551 -0.5 0.161307)
(-7.3425 -0.5 0.161307)
(-7.02992 -0.5 0.161307)
(-6.71734 -0.5 0.161307)
(-6.40478 -0.5 0.161307)
(-6.09223 -0.5 0.161307)
(-5.77969 -0.5 0.161307)
(-5.46717 -0.5 0.161307)
(-5.15465 -0.5 0.161307)
(-4.84215 -0.5 0.161307)
(-4.52967 -0.5 0.161307)
(-4.21719 -0.5 0.161307)
(-3.90473 -0.5 0.161307)
(-3.59228 -0.5 0.161307)
(-3.27984 -0.5 0.161307)
(-2.96742 -0.5 0.161307)
(-2.655 -0.5 0.161307)
(-2.3426 -0.5 0.161307)
(-2.03022 -0.5 0.161307)
(-1.71784 -0.5 0.161307)
(-1.40548 -0.5 0.161307)
(-1.09313 -0.5 0.161307)
(-0.780791 -0.5 0.161307)
(-0.468466 -0.5 0.161307)
(-0.156153 -0.5 0.161307)
(-9.84365 -0.5 0.173425)
(-9.53097 -0.5 0.173425)
(-9.21829 -0.5 0.173425)
(-8.90563 -0.5 0.173425)
(-8.59298 -0.5 0.173425)
(-8.28034 -0.5 0.173425)
(-7.96772 -0.5 0.173425)
(-7.6551 -0.5 0.173425)
(-7.3425 -0.5 0.173425)
(-7.02992 -0.5 0.173425)
(-6.71734 -0.5 0.173425)
(-6.40478 -0.5 0.173425)
(-6.09223 -0.5 0.173425)
(-5.77969 -0.5 0.173425)
(-5.46717 -0.5 0.173425)
(-5.15465 -0.5 0.173425)
(-4.84215 -0.5 0.173425)
(-4.52967 -0.5 0.173425)
(-4.21719 -0.5 0.173425)
(-3.90473 -0.5 0.173425)
(-3.59228 -0.5 0.173425)
(-3.27984 -0.5 0.173425)
(-2.96742 -0.5 0.173425)
(-2.655 -0.5 0.173425)
(-2.3426 -0.5 0.173425)
(-2.03022 -0.5 0.173425)
(-1.71784 -0.5 0.173425)
(-1.40548 -0.5 0.173425)
(-1.09313 -0.5 0.173425)
(-0.780791 -0.5 0.173425)
(-0.468466 -0.5 0.173425)
(-0.156153 -0.5 0.173425)
(-9.84365 -0.5 0.185431)
(-9.53097 -0.5 0.185431)
(-9.21829 -0.5 0.185431)
(-8.90563 -0.5 0.185431)
(-8.59298 -0.5 0.185431)
(-8.28034 -0.5 0.185431)
(-7.96772 -0.5 0.185431)
(-7.6551 -0.5 0.185431)
(-7.3425 -0.5 0.185431)
(-7.02992 -0.5 0.185431)
(-6.71734 -0.5 0.185431)
(-6.40478 -0.5 0.185431)
(-6.09223 -0.5 0.185431)
(-5.77969 -0.5 0.185431)
(-5.46717 -0.5 0.185431)
(-5.15465 -0.5 0.185431)
(-4.84215 -0.5 0.185431)
(-4.52967 -0.5 0.185431)
(-4.21719 -0.5 0.185431)
(-3.90473 -0.5 0.185431)
(-3.59228 -0.5 0.185431)
(-3.27984 -0.5 0.185431)
(-2.96742 -0.5 0.185431)
(-2.655 -0.5 0.185431)
(-2.3426 -0.5 0.185431)
(-2.03022 -0.5 0.185431)
(-1.71784 -0.5 0.185431)
(-1.40548 -0.5 0.185431)
(-1.09313 -0.5 0.185431)
(-0.780791 -0.5 0.185431)
(-0.468466 -0.5 0.185431)
(-0.156153 -0.5 0.185431)
(-9.84365 -0.5 0.197327)
(-9.53097 -0.5 0.197327)
(-9.21829 -0.5 0.197327)
(-8.90563 -0.5 0.197327)
(-8.59298 -0.5 0.197327)
(-8.28034 -0.5 0.197327)
(-7.96772 -0.5 0.197327)
(-7.6551 -0.5 0.197327)
(-7.3425 -0.5 0.197327)
(-7.02992 -0.5 0.197327)
(-6.71734 -0.5 0.197327)
(-6.40478 -0.5 0.197327)
(-6.09223 -0.5 0.197327)
(-5.77969 -0.5 0.197327)
(-5.46717 -0.5 0.197327)
(-5.15465 -0.5 0.197327)
(-4.84215 -0.5 0.197327)
(-4.52967 -0.5 0.197327)
(-4.21719 -0.5 0.197327)
(-3.90473 -0.5 0.197327)
(-3.59228 -0.5 0.197327)
(-3.27984 -0.5 0.197327)
(-2.96742 -0.5 0.197327)
(-2.655 -0.5 0.197327)
(-2.3426 -0.5 0.197327)
(-2.03022 -0.5 0.197327)
(-1.71784 -0.5 0.197327)
(-1.40548 -0.5 0.197327)
(-1.09313 -0.5 0.197327)
(-0.780791 -0.5 0.197327)
(-0.468466 -0.5 0.197327)
(-0.156153 -0.5 0.197327)
(-9.84365 -0.5 0.209113)
(-9.53097 -0.5 0.209113)
(-9.21829 -0.5 0.209113)
(-8.90563 -0.5 0.209113)
(-8.59298 -0.5 0.209113)
(-8.28034 -0.5 0.209113)
(-7.96772 -0.5 0.209113)
(-7.6551 -0.5 0.209113)
(-7.3425 -0.5 0.209113)
(-7.02992 -0.5 0.209113)
(-6.71734 -0.5 0.209113)
(-6.40478 -0.5 0.209113)
(-6.09223 -0.5 0.209113)
(-5.77969 -0.5 0.209113)
(-5.46717 -0.5 0.209113)
(-5.15465 -0.5 0.209113)
(-4.84215 -0.5 0.209113)
(-4.52967 -0.5 0.209113)
(-4.21719 -0.5 0.209113)
(-3.90473 -0.5 0.209113)
(-3.59228 -0.5 0.209113)
(-3.27984 -0.5 0.209113)
(-2.96742 -0.5 0.209113)
(-2.655 -0.5 0.209113)
(-2.3426 -0.5 0.209113)
(-2.03022 -0.5 0.209113)
(-1.71784 -0.5 0.209113)
(-1.40548 -0.5 0.209113)
(-1.09313 -0.5 0.209113)
(-0.780791 -0.5 0.209113)
(-0.468466 -0.5 0.209113)
(-0.156153 -0.5 0.209113)
(-9.84365 -0.5 0.220791)
(-9.53097 -0.5 0.220791)
(-9.21829 -0.5 0.220791)
(-8.90563 -0.5 0.220791)
(-8.59298 -0.5 0.220791)
(-8.28034 -0.5 0.220791)
(-7.96772 -0.5 0.220791)
(-7.6551 -0.5 0.220791)
(-7.3425 -0.5 0.220791)
(-7.02992 -0.5 0.220791)
(-6.71734 -0.5 0.220791)
(-6.40478 -0.5 0.220791)
(-6.09223 -0.5 0.220791)
(-5.77969 -0.5 0.220791)
(-5.46717 -0.5 0.220791)
(-5.15465 -0.5 0.220791)
(-4.84215 -0.5 0.220791)
(-4.52967 -0.5 0.220791)
(-4.21719 -0.5 0.220791)
(-3.90473 -0.5 0.220791)
(-3.59228 -0.5 0.220791)
(-3.27984 -0.5 0.220791)
(-2.96742 -0.5 0.220791)
(-2.655 -0.5 0.220791)
(-2.3426 -0.5 0.220791)
(-2.03022 -0.5 0.220791)
(-1.71784 -0.5 0.220791)
(-1.40548 -0.5 0.220791)
(-1.09313 -0.5 0.220791)
(-0.780791 -0.5 0.220791)
(-0.468466 -0.5 0.220791)
(-0.156153 -0.5 0.220791)
(-9.84365 -0.5 0.232361)
(-9.53097 -0.5 0.232361)
(-9.21829 -0.5 0.232361)
(-8.90563 -0.5 0.232361)
(-8.59298 -0.5 0.232361)
(-8.28034 -0.5 0.232361)
(-7.96772 -0.5 0.232361)
(-7.6551 -0.5 0.232361)
(-7.3425 -0.5 0.232361)
(-7.02992 -0.5 0.232361)
(-6.71734 -0.5 0.232361)
(-6.40478 -0.5 0.232361)
(-6.09223 -0.5 0.232361)
(-5.77969 -0.5 0.232361)
(-5.46717 -0.5 0.232361)
(-5.15465 -0.5 0.232361)
(-4.84215 -0.5 0.232361)
(-4.52967 -0.5 0.232361)
(-4.21719 -0.5 0.232361)
(-3.90473 -0.5 0.232361)
(-3.59228 -0.5 0.232361)
(-3.27984 -0.5 0.232361)
(-2.96742 -0.5 0.232361)
(-2.655 -0.5 0.232361)
(-2.3426 -0.5 0.232361)
(-2.03022 -0.5 0.232361)
(-1.71784 -0.5 0.232361)
(-1.40548 -0.5 0.232361)
(-1.09313 -0.5 0.232361)
(-0.780791 -0.5 0.232361)
(-0.468466 -0.5 0.232361)
(-0.156153 -0.5 0.232361)
(-9.84365 -0.5 0.243825)
(-9.53097 -0.5 0.243825)
(-9.21829 -0.5 0.243825)
(-8.90563 -0.5 0.243825)
(-8.59298 -0.5 0.243825)
(-8.28034 -0.5 0.243825)
(-7.96772 -0.5 0.243825)
(-7.6551 -0.5 0.243825)
(-7.3425 -0.5 0.243825)
(-7.02992 -0.5 0.243825)
(-6.71734 -0.5 0.243825)
(-6.40478 -0.5 0.243825)
(-6.09223 -0.5 0.243825)
(-5.77969 -0.5 0.243825)
(-5.46717 -0.5 0.243825)
(-5.15465 -0.5 0.243825)
(-4.84215 -0.5 0.243825)
(-4.52967 -0.5 0.243825)
(-4.21719 -0.5 0.243825)
(-3.90473 -0.5 0.243825)
(-3.59228 -0.5 0.243825)
(-3.27984 -0.5 0.243825)
(-2.96742 -0.5 0.243825)
(-2.655 -0.5 0.243825)
(-2.3426 -0.5 0.243825)
(-2.03022 -0.5 0.243825)
(-1.71784 -0.5 0.243825)
(-1.40548 -0.5 0.243825)
(-1.09313 -0.5 0.243825)
(-0.780791 -0.5 0.243825)
(-0.468466 -0.5 0.243825)
(-0.156153 -0.5 0.243825)
(-9.84365 -0.5 0.255183)
(-9.53097 -0.5 0.255183)
(-9.21829 -0.5 0.255183)
(-8.90563 -0.5 0.255183)
(-8.59298 -0.5 0.255183)
(-8.28034 -0.5 0.255183)
(-7.96772 -0.5 0.255183)
(-7.6551 -0.5 0.255183)
(-7.3425 -0.5 0.255183)
(-7.02992 -0.5 0.255183)
(-6.71734 -0.5 0.255183)
(-6.40478 -0.5 0.255183)
(-6.09223 -0.5 0.255183)
(-5.77969 -0.5 0.255183)
(-5.46717 -0.5 0.255183)
(-5.15465 -0.5 0.255183)
(-4.84215 -0.5 0.255183)
(-4.52967 -0.5 0.255183)
(-4.21719 -0.5 0.255183)
(-3.90473 -0.5 0.255183)
(-3.59228 -0.5 0.255183)
(-3.27984 -0.5 0.255183)
(-2.96742 -0.5 0.255183)
(-2.655 -0.5 0.255183)
(-2.3426 -0.5 0.255183)
(-2.03022 -0.5 0.255183)
(-1.71784 -0.5 0.255183)
(-1.40548 -0.5 0.255183)
(-1.09313 -0.5 0.255183)
(-0.780791 -0.5 0.255183)
(-0.468466 -0.5 0.255183)
(-0.156153 -0.5 0.255183)
(-9.84365 -0.5 0.266437)
(-9.53097 -0.5 0.266437)
(-9.21829 -0.5 0.266437)
(-8.90563 -0.5 0.266437)
(-8.59298 -0.5 0.266437)
(-8.28034 -0.5 0.266437)
(-7.96772 -0.5 0.266437)
(-7.6551 -0.5 0.266437)
(-7.3425 -0.5 0.266437)
(-7.02992 -0.5 0.266437)
(-6.71734 -0.5 0.266437)
(-6.40478 -0.5 0.266437)
(-6.09223 -0.5 0.266437)
(-5.77969 -0.5 0.266437)
(-5.46717 -0.5 0.266437)
(-5.15465 -0.5 0.266437)
(-4.84215 -0.5 0.266437)
(-4.52967 -0.5 0.266437)
(-4.21719 -0.5 0.266437)
(-3.90473 -0.5 0.266437)
(-3.59228 -0.5 0.266437)
(-3.27984 -0.5 0.266437)
(-2.96742 -0.5 0.266437)
(-2.655 -0.5 0.266437)
(-2.3426 -0.5 0.266437)
(-2.03022 -0.5 0.266437)
(-1.71784 -0.5 0.266437)
(-1.40548 -0.5 0.266437)
(-1.09313 -0.5 0.266437)
(-0.780791 -0.5 0.266437)
(-0.468466 -0.5 0.266437)
(-0.156153 -0.5 0.266437)
(-9.84365 -0.5 0.277587)
(-9.53097 -0.5 0.277587)
(-9.21829 -0.5 0.277587)
(-8.90563 -0.5 0.277587)
(-8.59298 -0.5 0.277587)
(-8.28034 -0.5 0.277587)
(-7.96772 -0.5 0.277587)
(-7.6551 -0.5 0.277587)
(-7.3425 -0.5 0.277587)
(-7.02992 -0.5 0.277587)
(-6.71734 -0.5 0.277587)
(-6.40478 -0.5 0.277587)
(-6.09223 -0.5 0.277587)
(-5.77969 -0.5 0.277587)
(-5.46717 -0.5 0.277587)
(-5.15465 -0.5 0.277587)
(-4.84215 -0.5 0.277587)
(-4.52967 -0.5 0.277587)
(-4.21719 -0.5 0.277587)
(-3.90473 -0.5 0.277587)
(-3.59228 -0.5 0.277587)
(-3.27984 -0.5 0.277587)
(-2.96742 -0.5 0.277587)
(-2.655 -0.5 0.277587)
(-2.3426 -0.5 0.277587)
(-2.03022 -0.5 0.277587)
(-1.71784 -0.5 0.277587)
(-1.40548 -0.5 0.277587)
(-1.09313 -0.5 0.277587)
(-0.780791 -0.5 0.277587)
(-0.468466 -0.5 0.277587)
(-0.156153 -0.5 0.277587)
(-9.84365 -0.5 0.288634)
(-9.53097 -0.5 0.288634)
(-9.21829 -0.5 0.288634)
(-8.90563 -0.5 0.288634)
(-8.59298 -0.5 0.288634)
(-8.28034 -0.5 0.288634)
(-7.96772 -0.5 0.288634)
(-7.6551 -0.5 0.288634)
(-7.3425 -0.5 0.288634)
(-7.02992 -0.5 0.288634)
(-6.71734 -0.5 0.288634)
(-6.40478 -0.5 0.288634)
(-6.09223 -0.5 0.288634)
(-5.77969 -0.5 0.288634)
(-5.46717 -0.5 0.288634)
(-5.15465 -0.5 0.288634)
(-4.84215 -0.5 0.288634)
(-4.52967 -0.5 0.288634)
(-4.21719 -0.5 0.288634)
(-3.90473 -0.5 0.288634)
(-3.59228 -0.5 0.288634)
(-3.27984 -0.5 0.288634)
(-2.96742 -0.5 0.288634)
(-2.655 -0.5 0.288634)
(-2.3426 -0.5 0.288634)
(-2.03022 -0.5 0.288634)
(-1.71784 -0.5 0.288634)
(-1.40548 -0.5 0.288634)
(-1.09313 -0.5 0.288634)
(-0.780791 -0.5 0.288634)
(-0.468466 -0.5 0.288634)
(-0.156153 -0.5 0.288634)
(-9.84365 -0.5 0.29958)
(-9.53097 -0.5 0.29958)
(-9.21829 -0.5 0.29958)
(-8.90563 -0.5 0.29958)
(-8.59298 -0.5 0.29958)
(-8.28034 -0.5 0.29958)
(-7.96772 -0.5 0.29958)
(-7.6551 -0.5 0.29958)
(-7.3425 -0.5 0.29958)
(-7.02992 -0.5 0.29958)
(-6.71734 -0.5 0.29958)
(-6.40478 -0.5 0.29958)
(-6.09223 -0.5 0.29958)
(-5.77969 -0.5 0.29958)
(-5.46717 -0.5 0.29958)
(-5.15465 -0.5 0.29958)
(-4.84215 -0.5 0.29958)
(-4.52967 -0.5 0.29958)
(-4.21719 -0.5 0.29958)
(-3.90473 -0.5 0.29958)
(-3.59228 -0.5 0.29958)
(-3.27984 -0.5 0.29958)
(-2.96742 -0.5 0.29958)
(-2.655 -0.5 0.29958)
(-2.3426 -0.5 0.29958)
(-2.03022 -0.5 0.29958)
(-1.71784 -0.5 0.29958)
(-1.40548 -0.5 0.29958)
(-1.09313 -0.5 0.29958)
(-0.780791 -0.5 0.29958)
(-0.468466 -0.5 0.29958)
(-0.156153 -0.5 0.29958)
(-9.84365 -0.5 0.310424)
(-9.53097 -0.5 0.310424)
(-9.21829 -0.5 0.310424)
(-8.90563 -0.5 0.310424)
(-8.59298 -0.5 0.310424)
(-8.28034 -0.5 0.310424)
(-7.96772 -0.5 0.310424)
(-7.6551 -0.5 0.310424)
(-7.3425 -0.5 0.310424)
(-7.02992 -0.5 0.310424)
(-6.71734 -0.5 0.310424)
(-6.40478 -0.5 0.310424)
(-6.09223 -0.5 0.310424)
(-5.77969 -0.5 0.310424)
(-5.46717 -0.5 0.310424)
(-5.15465 -0.5 0.310424)
(-4.84215 -0.5 0.310424)
(-4.52967 -0.5 0.310424)
(-4.21719 -0.5 0.310424)
(-3.90473 -0.5 0.310424)
(-3.59228 -0.5 0.310424)
(-3.27984 -0.5 0.310424)
(-2.96742 -0.5 0.310424)
(-2.655 -0.5 0.310424)
(-2.3426 -0.5 0.310424)
(-2.03022 -0.5 0.310424)
(-1.71784 -0.5 0.310424)
(-1.40548 -0.5 0.310424)
(-1.09313 -0.5 0.310424)
(-0.780791 -0.5 0.310424)
(-0.468466 -0.5 0.310424)
(-0.156153 -0.5 0.310424)
(-9.84365 -0.5 0.321169)
(-9.53097 -0.5 0.321169)
(-9.21829 -0.5 0.321169)
(-8.90563 -0.5 0.321169)
(-8.59298 -0.5 0.321169)
(-8.28034 -0.5 0.321169)
(-7.96772 -0.5 0.321169)
(-7.6551 -0.5 0.321169)
(-7.3425 -0.5 0.321169)
(-7.02992 -0.5 0.321169)
(-6.71734 -0.5 0.321169)
(-6.40478 -0.5 0.321169)
(-6.09223 -0.5 0.321169)
(-5.77969 -0.5 0.321169)
(-5.46717 -0.5 0.321169)
(-5.15465 -0.5 0.321169)
(-4.84215 -0.5 0.321169)
(-4.52967 -0.5 0.321169)
(-4.21719 -0.5 0.321169)
(-3.90473 -0.5 0.321169)
(-3.59228 -0.5 0.321169)
(-3.27984 -0.5 0.321169)
(-2.96742 -0.5 0.321169)
(-2.655 -0.5 0.321169)
(-2.3426 -0.5 0.321169)
(-2.03022 -0.5 0.321169)
(-1.71784 -0.5 0.321169)
(-1.40548 -0.5 0.321169)
(-1.09313 -0.5 0.321169)
(-0.780791 -0.5 0.321169)
(-0.468466 -0.5 0.321169)
(-0.156153 -0.5 0.321169)
(-9.84365 -0.5 0.331815)
(-9.53097 -0.5 0.331815)
(-9.21829 -0.5 0.331815)
(-8.90563 -0.5 0.331815)
(-8.59298 -0.5 0.331815)
(-8.28034 -0.5 0.331815)
(-7.96772 -0.5 0.331815)
(-7.6551 -0.5 0.331815)
(-7.3425 -0.5 0.331815)
(-7.02992 -0.5 0.331815)
(-6.71734 -0.5 0.331815)
(-6.40478 -0.5 0.331815)
(-6.09223 -0.5 0.331815)
(-5.77969 -0.5 0.331815)
(-5.46717 -0.5 0.331815)
(-5.15465 -0.5 0.331815)
(-4.84215 -0.5 0.331815)
(-4.52967 -0.5 0.331815)
(-4.21719 -0.5 0.331815)
(-3.90473 -0.5 0.331815)
(-3.59228 -0.5 0.331815)
(-3.27984 -0.5 0.331815)
(-2.96742 -0.5 0.331815)
(-2.655 -0.5 0.331815)
(-2.3426 -0.5 0.331815)
(-2.03022 -0.5 0.331815)
(-1.71784 -0.5 0.331815)
(-1.40548 -0.5 0.331815)
(-1.09313 -0.5 0.331815)
(-0.780791 -0.5 0.331815)
(-0.468466 -0.5 0.331815)
(-0.156153 -0.5 0.331815)
(-9.84365 -0.5 0.342363)
(-9.53097 -0.5 0.342363)
(-9.21829 -0.5 0.342363)
(-8.90563 -0.5 0.342363)
(-8.59298 -0.5 0.342363)
(-8.28034 -0.5 0.342363)
(-7.96772 -0.5 0.342363)
(-7.6551 -0.5 0.342363)
(-7.3425 -0.5 0.342363)
(-7.02992 -0.5 0.342363)
(-6.71734 -0.5 0.342363)
(-6.40478 -0.5 0.342363)
(-6.09223 -0.5 0.342363)
(-5.77969 -0.5 0.342363)
(-5.46717 -0.5 0.342363)
(-5.15465 -0.5 0.342363)
(-4.84215 -0.5 0.342363)
(-4.52967 -0.5 0.342363)
(-4.21719 -0.5 0.342363)
(-3.90473 -0.5 0.342363)
(-3.59228 -0.5 0.342363)
(-3.27984 -0.5 0.342363)
(-2.96742 -0.5 0.342363)
(-2.655 -0.5 0.342363)
(-2.3426 -0.5 0.342363)
(-2.03022 -0.5 0.342363)
(-1.71784 -0.5 0.342363)
(-1.40548 -0.5 0.342363)
(-1.09313 -0.5 0.342363)
(-0.780791 -0.5 0.342363)
(-0.468466 -0.5 0.342363)
(-0.156153 -0.5 0.342363)
(-9.84365 -0.5 0.352814)
(-9.53097 -0.5 0.352814)
(-9.21829 -0.5 0.352814)
(-8.90563 -0.5 0.352814)
(-8.59298 -0.5 0.352814)
(-8.28034 -0.5 0.352814)
(-7.96772 -0.5 0.352814)
(-7.6551 -0.5 0.352814)
(-7.3425 -0.5 0.352814)
(-7.02992 -0.5 0.352814)
(-6.71734 -0.5 0.352814)
(-6.40478 -0.5 0.352814)
(-6.09223 -0.5 0.352814)
(-5.77969 -0.5 0.352814)
(-5.46717 -0.5 0.352814)
(-5.15465 -0.5 0.352814)
(-4.84215 -0.5 0.352814)
(-4.52967 -0.5 0.352814)
(-4.21719 -0.5 0.352814)
(-3.90473 -0.5 0.352814)
(-3.59228 -0.5 0.352814)
(-3.27984 -0.5 0.352814)
(-2.96742 -0.5 0.352814)
(-2.655 -0.5 0.352814)
(-2.3426 -0.5 0.352814)
(-2.03022 -0.5 0.352814)
(-1.71784 -0.5 0.352814)
(-1.40548 -0.5 0.352814)
(-1.09313 -0.5 0.352814)
(-0.780791 -0.5 0.352814)
(-0.468466 -0.5 0.352814)
(-0.156153 -0.5 0.352814)
(-9.84365 -0.5 0.363169)
(-9.53097 -0.5 0.363169)
(-9.21829 -0.5 0.363169)
(-8.90563 -0.5 0.363169)
(-8.59298 -0.5 0.363169)
(-8.28034 -0.5 0.363169)
(-7.96772 -0.5 0.363169)
(-7.6551 -0.5 0.363169)
(-7.3425 -0.5 0.363169)
(-7.02992 -0.5 0.363169)
(-6.71734 -0.5 0.363169)
(-6.40478 -0.5 0.363169)
(-6.09223 -0.5 0.363169)
(-5.77969 -0.5 0.363169)
(-5.46717 -0.5 0.363169)
(-5.15465 -0.5 0.363169)
(-4.84215 -0.5 0.363169)
(-4.52967 -0.5 0.363169)
(-4.21719 -0.5 0.363169)
(-3.90473 -0.5 0.363169)
(-3.59228 -0.5 0.363169)
(-3.27984 -0.5 0.363169)
(-2.96742 -0.5 0.363169)
(-2.655 -0.5 0.363169)
(-2.3426 -0.5 0.363169)
(-2.03022 -0.5 0.363169)
(-1.71784 -0.5 0.363169)
(-1.40548 -0.5 0.363169)
(-1.09313 -0.5 0.363169)
(-0.780791 -0.5 0.363169)
(-0.468466 -0.5 0.363169)
(-0.156153 -0.5 0.363169)
(-9.84365 -0.5 0.373408)
(-9.53097 -0.5 0.373408)
(-9.21829 -0.5 0.373408)
(-8.90563 -0.5 0.373408)
(-8.59298 -0.5 0.373408)
(-8.28034 -0.5 0.373408)
(-7.96772 -0.5 0.373408)
(-7.6551 -0.5 0.373408)
(-7.3425 -0.5 0.373408)
(-7.02992 -0.5 0.373408)
(-6.71734 -0.5 0.373408)
(-6.40478 -0.5 0.373408)
(-6.09223 -0.5 0.373408)
(-5.77969 -0.5 0.373408)
(-5.46717 -0.5 0.373408)
(-5.15465 -0.5 0.373408)
(-4.84215 -0.5 0.373408)
(-4.52967 -0.5 0.373408)
(-4.21719 -0.5 0.373408)
(-3.90473 -0.5 0.373408)
(-3.59228 -0.5 0.373408)
(-3.27984 -0.5 0.373408)
(-2.96742 -0.5 0.373408)
(-2.655 -0.5 0.373408)
(-2.3426 -0.5 0.373408)
(-2.03022 -0.5 0.373408)
(-1.71784 -0.5 0.373408)
(-1.40548 -0.5 0.373408)
(-1.09313 -0.5 0.373408)
(-0.780791 -0.5 0.373408)
(-0.468466 -0.5 0.373408)
(-0.156153 -0.5 0.373408)
(-9.84365 -0.5 0.383275)
(-9.53097 -0.5 0.383275)
(-9.21829 -0.5 0.383275)
(-8.90563 -0.5 0.383275)
(-8.59298 -0.5 0.383275)
(-8.28034 -0.5 0.383275)
(-7.96772 -0.5 0.383275)
(-7.6551 -0.5 0.383275)
(-7.3425 -0.5 0.383275)
(-7.02992 -0.5 0.383275)
(-6.71734 -0.5 0.383275)
(-6.40478 -0.5 0.383275)
(-6.09223 -0.5 0.383275)
(-5.77969 -0.5 0.383275)
(-5.46717 -0.5 0.383275)
(-5.15465 -0.5 0.383275)
(-4.84215 -0.5 0.383275)
(-4.52967 -0.5 0.383275)
(-4.21719 -0.5 0.383275)
(-3.90473 -0.5 0.383275)
(-3.59228 -0.5 0.383275)
(-3.27984 -0.5 0.383275)
(-2.96742 -0.5 0.383275)
(-2.655 -0.5 0.383275)
(-2.3426 -0.5 0.383275)
(-2.03022 -0.5 0.383275)
(-1.71784 -0.5 0.383275)
(-1.40548 -0.5 0.383275)
(-1.09313 -0.5 0.383275)
(-0.780791 -0.5 0.383275)
(-0.468466 -0.5 0.383275)
(-0.156153 -0.5 0.383275)
(-9.84365 -0.5 0.392496)
(-9.53097 -0.5 0.392496)
(-9.21829 -0.5 0.392496)
(-8.90563 -0.5 0.392496)
(-8.59298 -0.5 0.392496)
(-8.28034 -0.5 0.392496)
(-7.96772 -0.5 0.392496)
(-7.6551 -0.5 0.392496)
(-7.3425 -0.5 0.392496)
(-7.02992 -0.5 0.392496)
(-6.71734 -0.5 0.392496)
(-6.40478 -0.5 0.392496)
(-6.09223 -0.5 0.392496)
(-5.77969 -0.5 0.392496)
(-5.46717 -0.5 0.392496)
(-5.15465 -0.5 0.392496)
(-4.84215 -0.5 0.392496)
(-4.52967 -0.5 0.392496)
(-4.21719 -0.5 0.392496)
(-3.90473 -0.5 0.392496)
(-3.59228 -0.5 0.392496)
(-3.27984 -0.5 0.392496)
(-2.96742 -0.5 0.392496)
(-2.655 -0.5 0.392496)
(-2.3426 -0.5 0.392496)
(-2.03022 -0.5 0.392496)
(-1.71784 -0.5 0.392496)
(-1.40548 -0.5 0.392496)
(-1.09313 -0.5 0.392496)
(-0.780791 -0.5 0.392496)
(-0.468466 -0.5 0.392496)
(-0.156153 -0.5 0.392496)
(-9.84365 -0.5 0.40106)
(-9.53097 -0.5 0.40106)
(-9.21829 -0.5 0.40106)
(-8.90563 -0.5 0.40106)
(-8.59298 -0.5 0.40106)
(-8.28034 -0.5 0.40106)
(-7.96772 -0.5 0.40106)
(-7.6551 -0.5 0.40106)
(-7.3425 -0.5 0.40106)
(-7.02992 -0.5 0.40106)
(-6.71734 -0.5 0.40106)
(-6.40478 -0.5 0.40106)
(-6.09223 -0.5 0.40106)
(-5.77969 -0.5 0.40106)
(-5.46717 -0.5 0.40106)
(-5.15465 -0.5 0.40106)
(-4.84215 -0.5 0.40106)
(-4.52967 -0.5 0.40106)
(-4.21719 -0.5 0.40106)
(-3.90473 -0.5 0.40106)
(-3.59228 -0.5 0.40106)
(-3.27984 -0.5 0.40106)
(-2.96742 -0.5 0.40106)
(-2.655 -0.5 0.40106)
(-2.3426 -0.5 0.40106)
(-2.03022 -0.5 0.40106)
(-1.71784 -0.5 0.40106)
(-1.40548 -0.5 0.40106)
(-1.09313 -0.5 0.40106)
(-0.780791 -0.5 0.40106)
(-0.468466 -0.5 0.40106)
(-0.156153 -0.5 0.40106)
(-9.84365 -0.5 0.409013)
(-9.53097 -0.5 0.409013)
(-9.21829 -0.5 0.409013)
(-8.90563 -0.5 0.409013)
(-8.59298 -0.5 0.409013)
(-8.28034 -0.5 0.409013)
(-7.96772 -0.5 0.409013)
(-7.6551 -0.5 0.409013)
(-7.3425 -0.5 0.409013)
(-7.02992 -0.5 0.409013)
(-6.71734 -0.5 0.409013)
(-6.40478 -0.5 0.409013)
(-6.09223 -0.5 0.409013)
(-5.77969 -0.5 0.409013)
(-5.46717 -0.5 0.409013)
(-5.15465 -0.5 0.409013)
(-4.84215 -0.5 0.409013)
(-4.52967 -0.5 0.409013)
(-4.21719 -0.5 0.409013)
(-3.90473 -0.5 0.409013)
(-3.59228 -0.5 0.409013)
(-3.27984 -0.5 0.409013)
(-2.96742 -0.5 0.409013)
(-2.655 -0.5 0.409013)
(-2.3426 -0.5 0.409013)
(-2.03022 -0.5 0.409013)
(-1.71784 -0.5 0.409013)
(-1.40548 -0.5 0.409013)
(-1.09313 -0.5 0.409013)
(-0.780791 -0.5 0.409013)
(-0.468466 -0.5 0.409013)
(-0.156153 -0.5 0.409013)
(-9.84365 -0.5 0.416399)
(-9.53097 -0.5 0.416399)
(-9.21829 -0.5 0.416399)
(-8.90563 -0.5 0.416399)
(-8.59298 -0.5 0.416399)
(-8.28034 -0.5 0.416399)
(-7.96772 -0.5 0.416399)