/*--------------------------------*- C++ -*----------------------------------*\
| =========                 |                                                 |
| \\      /  F ield         | OpenFOAM: The Open Source CFD Toolbox           |
|  \\    /   O peration     | Version:  2212                                  |
|   \\  /    A nd           | Website:  www.openfoam.com                      |
|    \\/     M anipulation  |                                                 |
\*---------------------------------------------------------------------------*/
FoamFile
{
    version     2.0;
    format      ascii;
    arch        "LSB;label=32;scalar=64";
    class       volScalarField;
    location    "5";
    object      k;
}
// * * * * * * * * * * * * * * * * * * * * * * * * * * * * * * * * * * * * * //

dimensions      [0 2 -2 0 0 0 0];

internalField   nonuniform List<scalar> 
20480
(
0.0010875778
0.0010885615
0.0010891624
0.0010894012
0.0010895654
0.0010897196
0.0010898483
0.0010899461
0.0010900181
0.0010900697
0.0010901044
0.0010901245
0.0010901317
0.0010901276
0.0010901133
0.0010900901
0.0010900589
0.0010900206
0.0010899758
0.0010899251
0.0010898691
0.001089808
0.0010897423
0.0010896722
0.0010895978
0.0010895189
0.0010894341
0.0010893386
0.0010892155
0.0010890333
0.0010887646
0.0010885842
0.0010875801
0.0010885625
0.0010891628
0.0010894017
0.0010895657
0.0010897194
0.0010898477
0.0010899452
0.0010900171
0.0010900686
0.0010901033
0.0010901233
0.0010901305
0.0010901264
0.0010901122
0.0010900891
0.0010900579
0.0010900197
0.001089975
0.0010899244
0.0010898684
0.0010898075
0.0010897419
0.0010896719
0.0010895976
0.0010895188
0.0010894341
0.0010893387
0.0010892158
0.0010890338
0.0010887653
0.0010885853
0.0010875862
0.0010885702
0.0010891714
0.0010894113
0.0010895759
0.0010897298
0.0010898582
0.0010899559
0.0010900279
0.0010900795
0.0010901141
0.0010901341
0.0010901413
0.0010901371
0.0010901228
0.0010900996
0.0010900684
0.00109003
0.0010899852
0.0010899345
0.0010898784
0.0010898174
0.0010897516
0.0010896815
0.0010896071
0.0010895283
0.0010894435
0.001089348
0.0010892252
0.0010890433
0.0010887745
0.0010885945
0.0010875957
0.0010885813
0.0010891815
0.0010894214
0.0010895862
0.0010897399
0.0010898681
0.0010899657
0.0010900377
0.0010900892
0.0010901238
0.0010901438
0.001090151
0.0010901468
0.0010901325
0.0010901093
0.001090078
0.0010900397
0.0010899949
0.0010899442
0.0010898881
0.0010898271
0.0010897614
0.0010896913
0.0010896169
0.001089538
0.0010894533
0.001089358
0.0010892353
0.0010890539
0.0010887851
0.0010886056
0.0010876085
0.001088596
0.0010891947
0.0010894348
0.0010896
0.0010897537
0.0010898819
0.0010899796
0.0010900516
0.0010901031
0.0010901378
0.0010901578
0.0010901649
0.0010901607
0.0010901465
0.0010901233
0.001090092
0.0010900537
0.0010900088
0.0010899581
0.0010899021
0.001089841
0.0010897753
0.0010897051
0.0010896307
0.0010895519
0.0010894672
0.0010893719
0.0010892496
0.0010890686
0.0010887998
0.0010886207
0.0010876246
0.0010886144
0.0010892112
0.0010894513
0.001089617
0.0010897706
0.0010898987
0.0010899963
0.0010900683
0.0010901199
0.0010901545
0.0010901745
0.0010901816
0.0010901774
0.0010901631
0.0010901398
0.0010901086
0.0010900702
0.0010900253
0.0010899746
0.0010899185
0.0010898574
0.0010897917
0.0010897215
0.0010896471
0.0010895683
0.0010894836
0.0010893885
0.0010892664
0.0010890861
0.0010888172
0.0010886388
0.0010876438
0.0010886363
0.0010892307
0.0010894709
0.0010896371
0.0010897907
0.0010899186
0.0010900163
0.0010900883
0.0010901398
0.0010901744
0.0010901943
0.0010902015
0.0010901972
0.0010901829
0.0010901597
0.0010901284
0.00109009
0.0010900451
0.0010899944
0.0010899382
0.0010898771
0.0010898113
0.0010897411
0.0010896667
0.0010895879
0.0010895033
0.0010894083
0.0010892866
0.0010891071
0.0010888381
0.0010886605
0.0010876662
0.0010886618
0.0010892533
0.0010894936
0.0010896604
0.0010898139
0.0010899417
0.0010900393
0.0010901113
0.0010901628
0.0010901974
0.0010902173
0.0010902244
0.0010902201
0.0010902058
0.0010901825
0.0010901512
0.0010901128
0.0010900679
0.0010900171
0.0010899609
0.0010898997
0.0010898339
0.0010897637
0.0010896893
0.0010896104
0.0010895258
0.0010894311
0.0010893098
0.0010891312
0.0010888621
0.0010886854
0.0010876919
0.0010886908
0.0010892791
0.0010895194
0.0010896868
0.0010898402
0.0010899679
0.0010900655
0.0010901375
0.001090189
0.0010902235
0.0010902433
0.0010902504
0.0010902461
0.0010902317
0.0010902084
0.0010901771
0.0010901386
0.0010900937
0.0010900428
0.0010899866
0.0010899254
0.0010898596
0.0010897893
0.0010897149
0.001089636
0.0010895514
0.0010894569
0.0010893361
0.0010891585
0.0010888894
0.0010887138
0.0010877208
0.0010887233
0.0010893079
0.0010895482
0.0010897163
0.0010898697
0.0010899972
0.0010900947
0.0010901667
0.0010902181
0.0010902526
0.0010902724
0.0010902794
0.0010902751
0.0010902607
0.0010902373
0.001090206
0.0010901675
0.0010901225
0.0010900716
0.0010900153
0.0010899541
0.0010898882
0.0010898179
0.0010897434
0.0010896645
0.00108958
0.0010894857
0.0010893655
0.001089189
0.0010889198
0.0010887455
0.001087753
0.0010887594
0.0010893399
0.0010895801
0.001089749
0.0010899024
0.0010900296
0.0010901271
0.001090199
0.0010902504
0.0010902848
0.0010903046
0.0010903115
0.0010903071
0.0010902927
0.0010902693
0.0010902379
0.0010901994
0.0010901543
0.0010901034
0.0010900471
0.0010899858
0.0010899199
0.0010898496
0.001089775
0.0010896961
0.0010896116
0.0010895175
0.0010893979
0.0010892226
0.0010889534
0.0010887806
0.0010877885
0.0010887989
0.001089375
0.0010896152
0.0010897849
0.0010899381
0.0010900652
0.0010901626
0.0010902345
0.0010902858
0.0010903202
0.0010903399
0.0010903467
0.0010903423
0.0010903278
0.0010903044
0.0010902729
0.0010902343
0.0010901893
0.0010901383
0.0010900819
0.0010900206
0.0010899546
0.0010898842
0.0010898096
0.0010897307
0.0010896462
0.0010895524
0.0010894334
0.0010892595
0.0010889903
0.0010888191
0.0010878274
0.0010888419
0.0010894132
0.0010896535
0.0010898241
0.0010899772
0.0010901039
0.0010902013
0.0010902731
0.0010903244
0.0010903586
0.0010903783
0.0010903851
0.0010903806
0.001090366
0.0010903425
0.0010903111
0.0010902724
0.0010902273
0.0010901762
0.0010901198
0.0010900584
0.0010899924
0.0010899219
0.0010898472
0.0010897683
0.0010896838
0.0010895903
0.001089472
0.0010892997
0.0010890305
0.0010888613
0.0010878698
0.0010888885
0.0010894548
0.0010896951
0.0010898665
0.0010900195
0.001090146
0.0010902432
0.001090315
0.0010903662
0.0010904004
0.0010904199
0.0010904266
0.0010904221
0.0010904075
0.0010903839
0.0010903523
0.0010903136
0.0010902684
0.0010902173
0.0010901609
0.0010900994
0.0010900332
0.0010899627
0.001089888
0.001089809
0.0010897246
0.0010896314
0.001089514
0.0010893438
0.0010890754
0.0010889094
0.0010879158
0.0010889386
0.0010894996
0.00108974
0.0010899123
0.0010900651
0.0010901913
0.0010902884
0.0010903602
0.0010904113
0.0010904454
0.0010904648
0.0010904715
0.0010904668
0.0010904521
0.0010904285
0.0010903968
0.0010903581
0.0010903128
0.0010902617
0.0010902051
0.0010901435
0.0010900773
0.0010900067
0.0010899319
0.001089853
0.0010897688
0.0010896767
0.0010895621
0.0010893988
0.0010891399
0.0010889888
0.0010879654
0.0010889925
0.0010895478
0.0010897883
0.0010899616
0.0010901142
0.0010902401
0.0010903371
0.0010904087
0.0010904597
0.0010904937
0.0010905131
0.0010905197
0.0010905149
0.0010905001
0.0010904764
0.0010904447
0.0010904058
0.0010903605
0.0010903093
0.0010902526
0.001090191
0.0010901247
0.0010900542
0.0010899796
0.0010899015
0.0010898202
0.0010897368
0.001089647
0.0010895447
0.0010893959
0.0010893937
0.0010880189
0.00108905
0.0010895995
0.0010898402
0.0010900144
0.0010901668
0.0010902924
0.0010903893
0.0010904608
0.0010905117
0.0010905456
0.0010905649
0.0010905714
0.0010905665
0.0010905516
0.0010905278
0.001090496
0.001090457
0.0010904116
0.0010903603
0.0010903036
0.001090242
0.001090176
0.0010901064
0.0010900352
0.0010899675
0.0010899182
0.0010899296
0.0010901094
0.0010906766
0.0010917903
0.0010935129
0.0010880765
0.0010891114
0.0010896549
0.0010898958
0.0010900709
0.0010902231
0.0010903484
0.0010904451
0.0010905165
0.0010905673
0.0010906011
0.0010906203
0.0010906267
0.0010906217
0.0010906067
0.0010905828
0.0010905509
0.0010905118
0.0010904663
0.0010904151
0.0010903587
0.0010902981
0.0010902359
0.0010901781
0.0010901439
0.0010901901
0.0010904856
0.0010915217
0.0010946268
0.0011025455
0.0011179968
0.0011405482
0.0010881382
0.0010891767
0.0010897139
0.0010899552
0.0010901313
0.0010902832
0.0010904081
0.0010905047
0.001090576
0.0010906267
0.0010906604
0.0010906795
0.0010906858
0.0010906807
0.0010906656
0.0010906415
0.0010906095
0.0010905705
0.0010905253
0.0010904751
0.0010904225
0.0010903745
0.0010903521
0.0010904197
0.0010907745
0.0010920141
0.0010959292
0.0011077364
0.0011417543
0.0012287338
0.0014064133
0.0016942369
0.0010882043
0.0010892461
0.0010897769
0.0010900185
0.0010901955
0.0010903472
0.0010904718
0.0010905682
0.0010906395
0.0010906901
0.0010907237
0.0010907427
0.0010907488
0.0010907436
0.0010907284
0.0010907043
0.0010906725
0.0010906344
0.0010905927
0.0010905546
0.0010905416
0.0010906215
0.0010910052
0.0010923471
0.0010966557
0.0011100354
0.0011508095
0.0012725236
0.0016235291
0.0025379506
0.0045260632
0.0082754942
0.0010882752
0.0010893196
0.0010898438
0.001090086
0.001090264
0.0010904154
0.0010905396
0.0010906358
0.001090707
0.0010907575
0.001090791
0.0010908099
0.001090816
0.0010908107
0.0010907956
0.0010907723
0.0010907434
0.0010907158
0.0010907101
0.0010907917
0.0010911703
0.0010925102
0.0010968961
0.0011108003
0.0011541158
0.0012873148
0.0016916416
0.0028937216
0.0063273554
0.015155913
0.034163778
0.069664842
0.001088351
0.0010893975
0.001089915
0.0010901578
0.0010903367
0.0010904878
0.0010906117
0.0010907078
0.0010907789
0.0010908293
0.0010908627
0.0010908815
0.0010908876
0.0010908829
0.0010908699
0.0010908547
0.0010908552
0.0010909295
0.0010912691
0.0010924973
0.0010966204
0.0011100127
0.0011526944
0.0012868246
0.0017030093
0.0029751425
0.0067705645
0.017528993
0.045012413
0.10360579
0.20410978
0.35069669
0.001088432
0.0010894799
0.0010899906
0.0010902341
0.0010904139
0.0010905647
0.0010906883
0.0010907842
0.0010908552
0.0010909056
0.001090939
0.0010909581
0.0010909655
0.0010909662
0.0010909743
0.0010910365
0.0010913117
0.0010923354
0.0010958848
0.0011077658
0.0011466778
0.0012720329
0.0016700147
0.0029133417
0.0067049481
0.017731416
0.046877034
0.1129077
0.23774251
0.43507198
0.70154043
1.0223391
0.0010885187
0.0010895669
0.0010900707
0.0010903151
0.0010904958
0.0010906463
0.0010907696
0.0010908654
0.0010909364
0.0010909868
0.0010910209
0.0010910429
0.0010910631
0.0010911148
0.0010913158
0.0010920812
0.001094844
0.0011044502
0.0011369947
0.0012450465
0.0015975849
0.0027271093
0.0062567976
0.016781046
0.045343286
0.11186022
0.24137458
0.4553607
0.76639027
1.1756192
1.6688047
2.2151375
0.0010886113
0.0010896588
0.0010901556
0.001090401
0.0010905825
0.0010907328
0.0010908558
0.0010909516
0.0010910227
0.0010910745
0.0010911148
0.0010911647
0.0010913002
0.0010918051
0.0010937125
0.0011006791
0.0011253325
0.0012103576
0.001497252
0.0024450605
0.0054956738
0.014878082
0.04124295
0.104891
0.23284953
0.45017022
0.77443326
1.2177392
1.7887909
2.4840538
3.2771199
4.1137072
0.0010887102
0.0010897557
0.0010902455
0.001090492
0.0010906745
0.0010908244
0.0010909472
0.0010910434
0.0010911168
0.0010911804
0.0010912762
0.001091569
0.0010927047
0.0010971215
0.0011136992
0.0011738301
0.0013856777
0.0021129026
0.0045396209
0.012292931
0.035071984
0.092831649
0.21431142
0.42831662
0.75673339
1.2161702
1.8210062
2.5826323
3.5065358
4.57807
5.7521644
6.9436134
0.0010888158
0.0010898579
0.0010903407
0.0010905885
0.0010907718
0.0010909215
0.0010910447
0.0010911444
0.0010912379
0.0010914028
0.001091972
0.0010943244
0.0011038918
0.0011411348
0.001280328
0.0017827999
0.0035372168
0.0094080718
0.027618873
0.076815171
0.18680004
0.39054824
0.71527187
1.1823915
1.8106347
2.6164315
3.6109963
4.7996367
6.1800367
7.7212565
9.3561611
10.962465
0.0010889284
0.0010899656
0.0010904414
0.0010906906
0.0010908748
0.001091025
0.0010911529
0.0010912828
0.0010915439
0.0010925536
0.001097048
0.0011163789
0.0011950796
0.0014999687
0.0026306615
0.006637469
0.019893203
0.058609073
0.15234739
0.33814004
0.64973175
1.1147226
1.7572974
2.5990783
3.655369
4.9364802
6.4441254
8.1743397
10.116536
12.225426
14.398458
16.476541
0.0010890483
0.001090079
0.0010905479
0.0010907988
0.0010909844
0.0010911402
0.0010913084
0.0010916861
0.0010933124
0.001101175
0.0011373396
0.0012928155
0.0019215619
0.0043245366
0.012915152
0.040442563
0.11419446
0.27409651
0.56136704
1.0115947
1.6561682
2.5236191
3.6348766
5.0050888
6.6375199
8.5326464
10.684682
13.078743
15.688124
18.447272
21.204441
23.76787
0.0010891755
0.0010901982
0.0010906604
0.0010909136
0.0010911058
0.0010913079
0.0010917988
0.0010941496
0.0011066117
0.0011686126
0.0014533246
0.00266571
0.0074556882
0.02458355
0.076619202
0.20359844
0.4540793
0.87376439
1.5036006
2.3814102
3.5364424
4.9906466
6.7500541
8.8186453
11.189235
13.845469
16.767878
19.921556
23.254304
26.670033
29.977256
32.946135
0.0010893079
0.0010903206
0.0010907764
0.0010910362
0.0010912746
0.0010918389
0.0010948383
0.0011125031
0.0012087749
0.0016867249
0.0038531327
0.012733411
0.044213554
0.13398487
0.33541057
0.70587072
1.2989109
2.1650748
3.3457982
4.8727896
6.7578916
9.0093064
11.617941
14.564535
17.823267
21.347188
25.09106
28.995224
32.989008
36.955149
40.675535
43.883699
0.0010894452
0.0010904492
0.0010909042
0.0010912039
0.0010917848
0.0010950888
0.001117086
0.0012505407
0.0019765337
0.005519877
0.020681456
0.073780487
0.21672508
0.51760283
1.0458495
1.8687106
3.0455585
4.6234862
6.6246978
9.0628227
11.928191
15.197934
18.835752
22.781102
26.972897
31.33607
35.804143
40.30645
44.768006
49.068402
52.983718
56.209309
0.0010895822
0.0010905828
0.0010910653
0.0010916379
0.0010946913
0.001117914
0.0012781129
0.0022492644
0.0074201711
0.030699035
0.11178594
0.32143208
0.74572168
1.4724853
2.5859027
4.1562612
6.2260971
8.8185377
11.927427
15.525965
19.564757
23.968378
28.651723
33.519745
38.486556
43.46858
48.396613
53.211163
57.853278
62.216858
66.089687
69.110009
0.0010897108
0.0010907246
0.0010913926
0.0010937218
0.0011130707
0.001268132
0.0023394956
0.0086829997
0.039293461
0.14793108
0.42587211
0.98207391
1.931026
3.3768635
5.3981524
8.0381971
11.305942
15.174502
19.58449
24.442908
29.636045
35.043639
40.551114
46.053485
51.467199
56.72711
61.786657
66.611033
71.164792
75.361039
79.005667
81.669403
0.001089832
0.0010909409
0.001092666
0.001105353
0.0012223028
0.0021668208
0.0085552934
0.042659024
0.17070774
0.50664454
1.1897171
2.368209
4.1744356
6.6928649
9.967933
13.986062
18.687446
23.961458
29.664219
35.64031
41.737265
47.819858
53.781055
59.540685
65.045239
70.2618
75.173677
79.77244
84.044487
87.920059
91.202981
93.443164
0.0010899488
0.0010915441
0.0010987717
0.0011673886
0.0018169614
0.0069920555
0.038860237
0.17176205
0.5437352
1.3327816
2.7311514
4.9055322
7.9598323
11.924727
16.762996
22.356282
28.534637
35.094944
41.835133
48.574402
55.169179
61.515019
67.544222
73.218076
78.520843
83.452379
88.02254
92.244053
96.119373
99.591365
102.44865
104.24065
0.0010900733
0.0010939054
0.0011274795
0.0014728447
0.0047523605
0.029109177
0.14881514
0.52346086
1.3773451
2.9611719
5.4895721
9.094665
13.796399
19.508055
26.04934
33.164416
40.588259
48.070408
55.409487
62.459929
69.128293
75.363407
81.146309
86.479896
91.381497
95.876572
99.993903
103.76011
107.18729
110.22637
112.64573
113.99266
0.0010902574
0.0011035592
0.0012533722
0.0028508666
0.017500895
0.10805179
0.4445685
1.3004504
3.0027545
5.8380299
9.9798994
15.444178
22.080614
29.612761
37.701653
45.998018
54.20843
62.1155
69.578639
76.521081
82.913707
88.75977
94.083134
98.919104
103.30835
107.29264
110.91163
114.19914
117.17162
119.78441
121.78434
122.7057
0.0010906993
0.0011410607
0.001763713
0.0084688387
0.063065661
0.3231086
1.1009979
2.8167701
5.8649496
10.489396
16.709821
24.306717
32.88621
41.989915
51.18412
60.126374
68.587074
76.436413
83.620469
90.136551
96.013603
101.29795
106.04382
110.30708
114.14165
117.59727
120.71781
123.53921
126.07846
128.29293
129.90767
130.42938
0.0010920911
0.0012768194
0.0036670399
0.028421182
0.19169144
0.81022506
2.3981961
5.5046136
10.497619
17.427333
26.001401
35.685832
45.869995
56.011208
65.714043
74.736822
82.965576
90.375215
96.994894
102.88275
108.10977
112.75002
116.87499
120.5505
123.83538
126.78106
129.43092
131.8196
133.9623
135.8171
137.08718
137.23445
0.0010966595
0.0017333113
0.010115293
0.087405998
0.49401318
1.7967101
4.7376522
9.8983677
17.425497
26.965859
37.816267
49.170909
60.343969
70.868248
80.489496
89.113679
96.750618
103.4676
109.35687
114.51697
119.0433
123.02352
126.53554
129.64706
132.41601
134.89132
137.11294
139.11226
140.90147
142.43892
143.40551
143.19852
0.0011110322
0.0031564722
0.029478912
0.23366775
1.1289601
3.6276858
8.6390256
16.542852
26.981448
39.056684
51.703668
64.03599
75.485041
85.775088
94.836892
102.72272
109.54469
115.43577
120.52666
124.9364
128.76984
132.11736
135.05562
137.64887
139.95053
142.00462
143.84614
145.50235
146.98202
148.24378
148.94567
148.3974
0.0011535033
0.0072488582
0.08007672
0.55555747
2.3559729
6.7783099
14.665954
25.818078
39.146917
53.240632
66.916723
79.447859
90.520568
100.0937
108.27212
115.22266
121.12583
126.15137
130.44619
134.13404
137.31839
140.08512
142.5049
144.63548
146.52391
148.20827
149.718
151.07606
152.28786
153.31263
153.78479
152.90033
0.0012710034
0.018009687
0.19730102
1.2091214
4.5611085
11.809418
23.268568
37.783004
53.493463
68.766349
82.61247
94.639698
104.83793
113.37928
120.49927
126.43677
131.40684
135.59148
139.13698
142.16096
144.7588
147.00776
148.97007
150.69568
152.22461
153.58878
154.81209
155.91344
156.89529
157.71756
157.99095
156.76764
0.0015754826
0.043789521
0.44738266
2.448644
8.2486111
19.243544
34.635013
52.09068
69.28513
84.778191
98.017595
109.01037
118.01885
125.37003
131.37674
136.30993
140.39178
143.79883
146.66571
149.09761
151.17841
152.97495
154.54022
155.91609
157.13569
158.22504
159.20287
160.08454
160.87
161.51957
161.62159
160.04984
0.002315703
0.10085104
0.94880365
4.644825
13.969438
29.437574
48.566673
68.052969
85.652063
100.48051
112.52516
122.15354
129.82413
135.95026
140.87374
144.86643
148.13868
150.8506
153.119
155.03392
156.66664
158.07331
159.2978
160.37433
161.32968
162.18452
162.95292
163.64726
164.26555
164.76775
164.72292
162.78736
0.0040112275
0.2200594
1.8946417
8.2698575
22.240431
42.418833
64.480374
84.793397
101.75822
115.23895
125.72347
133.83998
140.1547
145.10622
149.02876
152.17447
154.73076
156.83574
158.58605
160.05616
161.30509
162.3789
163.31307
164.13491
164.86554
165.52095
166.1111
166.646
167.12226
167.4991
167.32931
165.01042
0.0076865189
0.45663434
3.567588
13.858485
33.356716
57.801744
81.525392
101.42027
116.9154
128.61511
137.37884
143.97768
149.00712
152.88533
155.91572
158.31943
160.2559
161.83969
163.14721
164.23841
165.16121
165.95259
166.64058
167.24647
167.78646
168.27253
168.71111
169.1104
169.46609
169.73727
169.46225
166.73872
0.015245328
0.90108227
6.3452289
21.936975
47.263663
74.84689
98.75412
117.16013
130.63015
140.35244
147.39504
152.56616
156.43241
159.36278
161.61817
163.38447
164.79238
165.93374
166.86609
167.63667
168.28372
168.83632
169.3161
169.73913
170.11752
170.45983
170.76947
171.05336
171.30675
171.48981
171.12841
167.98054
0.030026878
1.6916558
10.688403
32.847694
63.498285
92.593684
115.27662
131.42587
142.59726
150.33576
155.76582
159.654
162.50207
164.61572
166.21017
167.43646
168.39829
169.16697
169.7832
170.28356
170.6981
171.04918
171.35295
171.62117
171.86248
172.08259
172.2824
172.46795
172.6345
172.74502
172.3166
168.73083
0.057559346
3.0260094
17.091624
46.57714
81.221568
110.02385
130.36106
143.8253
152.66108
158.54104
162.52935
165.30259
167.28082
168.70303
169.74111
170.51425
171.10217
171.55837
171.90907
172.18215
172.40083
172.58182
172.73673
172.87368
172.99847
173.11448
173.22053
173.32213
173.41495
173.46683
172.99257
168.96786
0.10647113
5.1656104
25.958412
62.67065
99.353135
126.20228
143.46887
154.12704
160.76066
164.98385
167.727
169.5549
170.803
171.64714
172.22106
172.61626
172.89201
173.08683
173.21482
173.29685
173.35051
173.3878
173.41656
173.44194
173.46741
173.49449
173.52036
173.55017
173.58046
173.58629
173.09062
168.64726
0.1893864
8.4184979
37.442456
80.236774
116.73182
140.35549
154.23336
162.20073
166.86897
169.66956
171.36495
172.40577
173.04866
173.4138
173.60286
173.6841
173.69976
173.67608
173.61748
173.53907
173.4537
173.36949
173.2912
173.22157
173.16219
173.11313
173.07058
173.0392
173.01686
172.98828
172.50017
167.69219
0.32337198
13.078318
51.283433
98.03881
132.2435
151.87742
162.39491
167.94097
170.92784
172.54179
173.37301
173.7674
173.91311
173.88432
173.75607
173.57748
173.37695
173.17082
172.95683
172.74453
172.5427
172.35628
172.18754
172.0373
171.90564
171.79154
171.6906
171.60705
171.54081
171.48834
171.04219
165.97147
0.52893808
19.307479
66.670044
114.62636
144.87521
160.26672
167.70256
171.17692
172.77354
173.42094
173.55178
173.42177
173.16255
172.8141
172.42759
172.03641
171.65801
171.30093
170.95821
170.63467
170.33561
170.06342
169.81841
169.59987
169.40668
169.23701
169.08613
168.95809
168.85555
168.7885
168.4243
163.26069
0.82579038
26.945136
82.154155
128.41782
153.67073
164.99558
169.7781
171.55669
172.039
171.9192
171.49699
170.95093
170.36814
169.76382
169.16958
168.60638
168.08307
167.60219
167.15355
166.73808
166.35823
166.01432
165.70513
165.42877
165.18321
164.96599
164.7723
164.60611
164.47355
164.40042
164.16261
159.16937
1.2225581
35.228995
95.584445
137.6448
157.56391
165.30251
167.92739
168.39118
168.01904
167.31088
166.46349
165.59524
164.75971
163.95473
163.19675
162.4969
161.85759
161.27684
160.74231
160.25187
159.80563
159.40232
159.03953
158.7145
158.42449
158.1666
157.93609
157.73697
157.5793
157.50821
157.4436
153.00595
1.6975896
42.462009
104.01797
140.15448
155.05177
159.90254
160.9008
160.40269
159.40846
158.27029
157.11103
156.00493
154.98142
154.02686
153.14641
152.34354
151.6161
150.9588
150.35806
149.8094
149.31113
148.8607
148.45489
148.09031
147.76374
147.47194
147.2104
146.98324
146.80476
146.74281
146.89739
143.54769
2.172704
45.783391
103.64122
133.12064
143.85063
146.59016
146.47262
145.33862
143.93995
142.52517
141.1681
139.91267
138.77189
137.72546
136.77058
135.90534
135.12439
134.42027
133.77895
133.19439
132.66353
132.18301
131.74907
131.35796
131.00618
130.69036
130.40633
130.15827
129.96459
129.91614
130.32235
128.72739
2.5008708
41.63642
90.237788
113.04396
120.59546
121.96283
121.21256
119.77016
118.20473
116.69569
115.28708
114.0033
112.84719
111.79606
110.8423
109.98081
109.20445
108.50477
107.86835
107.28845
106.76129
106.28313
105.8501
105.45842
105.10462
104.78541
104.49716
104.24385
104.04644
104.01153
104.64827
105.41293
2.5341086
28.42891
61.510602
77.186208
82.177877
82.722407
81.768308
80.374034
78.942695
77.596354
76.359015
75.241687
74.241299
73.337103
72.519845
71.783222
71.119982
70.522287
69.978959
69.483786
69.033069
68.623375
68.25129
67.913545
67.607169
67.329385
67.077431
66.854398
66.679799
66.655071
67.374244
70.337357
2.39839
11.273707
24.33835
31.036326
33.152012
33.227351
32.616114
31.822943
31.036511
30.310803
29.653224
29.065457
28.543258
28.074735
27.653704
27.275843
26.936717
26.63183
26.355355
26.103827
25.875079
25.667173
25.47825
25.306565
25.150553
25.008763
24.879871
24.765194
24.67484
24.663146
25.092969
27.928079
3.4950576
2.3060016
4.0157199
4.9940794
5.2974392
5.2854178
5.1681807
5.0255125
4.8869332
4.7604798
4.6468387
4.5458772
4.4565984
4.37685
4.3054417
4.2415336
4.1843047
4.1329487
4.0864676
4.0442492
4.0059015
3.97108
3.9394601
3.9107402
3.8846517
3.8609457
3.8394089
3.8202361
3.8051879
3.8037231
3.8837009
4.5957038
19.160166
4.690958
3.73751
3.5863487
3.4863937
3.3745803
3.2644093
3.1636868
3.0748001
2.9971943
2.9294112
2.8702647
2.818581
2.7729843
2.7325296
2.6965356
2.6644349
2.6357219
2.609867
2.5864902
2.5653249
2.546153
2.5287808
2.5130354
2.4987661
2.4858305
2.4741654
2.4638136
2.4562208
2.4566829
2.5141161
3.2134282
3.1383647
0.642852
0.34965072
0.2692529
0.26128995
0.27175749
0.280854
0.28489398
0.2845327
0.28123297
0.27631465
0.27064997
0.26478276
0.25902471
0.25353579
0.24836645
0.24352599
0.23901773
0.23483962
0.23098771
0.22745524
0.22423587
0.22132857
0.21873891
0.21649438
0.21465794
0.21335743
0.21285812
0.21391116
0.21838642
0.23792738
0.41348774
0.45238579
0.092432477
0.056950751
0.088489692
0.15269888
0.20760683
0.24132472
0.25835637
0.26437492
0.26405994
0.26047483
0.25532405
0.24958662
0.2437857
0.23817194
0.23281945
0.2277494
0.22298211
0.21852967
0.2143931
0.21056556
0.20703797
0.20379981
0.2008401
0.19817007
0.1958285
0.19389678
0.19255687
0.19226365
0.19472973
0.20930822
0.32554272
0.16039534
0.041490045
0.090380995
0.46166594
1.031734
1.496722
1.7784596
1.9213173
1.97386
1.9750266
1.9498205
1.9119404
1.8692061
1.8257735
1.7836242
1.7433417
1.7051006
1.6690766
1.6353799
1.6040268
1.5749683
1.5481352
1.5234398
1.5007816
1.4802276
1.4620423
1.4467838
1.4357153
1.4318294
1.4476362
1.5482604
2.21908
0.1058036
0.063349561
0.34295181
1.9987938
4.4541487
6.3867842
7.532259
8.1079877
8.3205013
8.3289721
8.2331503
8.0868122
7.9206322
7.7509617
7.5856594
7.4270813
7.2759958
7.1331996
6.9992232
6.8742102
6.7580338
6.6504778
6.5512367
6.4599389
6.3768859
6.3031637
6.2410249
6.1954871
6.1775433
6.2355993
6.6040756
8.494912
0.083308042
0.11115303
0.88078633
5.2675317
11.328565
15.718214
18.18864
19.404922
19.858328
19.895952
19.722825
19.446315
19.127414
18.798664
18.475861
18.163812
17.864301
17.57931
17.310266
17.057754
16.821777
16.602119
16.398326
16.209734
16.03708
15.882674
15.751132
15.652567
15.605269
15.700486
16.318561
18.501271
0.062813593
0.14980098
1.4946915
9.0301319
18.791049
25.44449
29.038787
30.782251
31.442971
31.532102
31.33383
30.993701
30.593933
30.178
29.766945
29.367005
28.980714
28.611168
28.260633
27.930161
27.61997
27.329954
27.059601
26.807997
26.576158
26.367098
26.186659
26.047425
25.966138
26.045855
26.624318
27.729536
0.042855341
0.1549846
1.8354541
11.477819
24.022102
32.540968
37.106452
39.321702
40.195954
40.373561
40.203525
39.860984
39.444305
39.004657
38.566591
38.137101
37.719406
37.317657
36.93488
36.572548
36.231114
35.910607
35.610479
35.329554
35.068956
34.831906
34.62439
34.45884
34.345063
34.373617
34.732298
34.456029
0.026352277
0.12781686
1.7055252
11.464533
25.493913
35.775982
41.559512
44.466832
45.709474
46.087367
46.032081
45.758716
45.387457
44.979793
44.565207
44.152277
43.745673
43.351057
42.972482
42.612038
42.270558
41.948315
41.644784
41.358524
41.090704
40.844445
40.625144
40.443531
40.300588
40.262791
40.350033
39.024043
0.014800937
0.087395574
1.2448622
9.2609806
23.107937
34.972696
42.398795
46.419462
48.322779
49.095248
49.286553
49.176426
48.921791
48.602715
48.258439
47.901864
47.540936
47.184083
46.837113
46.503231
46.18402
45.880258
45.591618
45.316471
45.056136
44.813545
44.593157
44.403498
44.238158
44.135975
43.979673
42.065616
0.0077862276
0.051229594
0.73867737
6.1185503
17.917413
30.521739
39.768878
45.357464
48.321824
49.776025
50.411531
50.602673
50.564105
50.407854
50.191438
49.937287
49.660047
49.373089
49.085311
48.801978
48.526103
48.259476
48.002308
47.753022
47.513347
47.286144
47.074983
46.885878
46.707865
46.552489
46.209458
44.076993
0.0040247565
0.02645113
0.36724096
3.3217287
11.702615
23.399919
33.96442
41.337851
45.756717
48.241905
49.588941
50.279741
50.601541
50.714593
50.706682
50.618095
50.475499
50.300365
50.106808
49.903718
49.69669
49.489369
49.283113
49.076874
48.873226
48.675249
48.48595
48.308955
48.130305
47.93842
47.471104
45.360098
0.0022374638
0.012375029
0.15676719
1.4939971
6.313443
15.288681
25.722825
34.490365
40.555692
44.408645
46.779475
48.219956
49.093259
49.620362
49.931591
50.096871
50.160773
50.156052
50.105038
50.022597
49.918665
49.800039
49.67025
49.529647
49.382177
49.231534
49.080641
48.9315
48.767438
48.559238
48.0242
46.066962
0.0014871811
0.0055148626
0.058485927
0.56380268
2.7856238
8.2402642
16.616245
25.502275
32.838282
38.16052
41.810125
44.265799
45.92112
47.049904
47.829882
48.36865
48.735811
48.980564
49.137321
49.229931
49.27499
49.284223
49.265007
49.220775
49.156832
49.07793
48.987482
48.886802
48.757532
48.556374
48.00087
46.253454
0.0012094322
0.0026116321
0.019512363
0.1798136
1.0030654
3.5888116
8.8049769
16.008516
23.400021
29.715385
34.607585
38.228742
40.870135
42.801306
44.227588
45.290427
46.087017
46.686867
47.14001
47.482386
47.739868
47.931241
48.069509
48.162718
48.218597
48.243702
48.242649
48.216946
48.148766
47.981832
47.445464
45.914487
0.0011201747
0.0015431086
0.0062302166
0.049209945
0.29454635
1.2454763
3.7240258
8.1691504
14.00114
20.09576
25.603884
30.180968
33.824396
36.674448
38.89722
40.636145
42.003254
43.084373
43.94468
44.633258
45.186891
45.633179
45.992393
46.278663
46.503557
46.676442
46.803974
46.888704
46.91604
46.815948
46.334392
45.002603
0.001095707
0.0012053128
0.0023273828
0.012086295
0.071538269
0.34241923
1.2298199
3.2806112
6.7216681
11.225333
16.140309
20.884454
25.120294
28.734568
31.745977
34.228247
36.266894
37.941792
39.321588
40.462709
41.410336
42.200185
42.859986
43.410579
43.868433
44.246609
44.554576
44.796654
44.963191
44.970975
44.581727
43.428696
0.0010899832
0.0011144086
0.0013451521
0.0032149293
0.01493373
0.07536011
0.31506206
1.0109718
2.4993375
4.9461232
8.2304481
12.018558
15.940781
19.709425
23.153725
26.204646
28.856894
31.138325
33.0907
34.75854
36.183525
37.402401
38.446273
39.34045
40.105484
40.757888
41.309963
41.767984
42.124801
42.293844
42.042162
41.060555
0.0010888042
0.0010936228
0.0011341769
0.0014366626
0.0033151605
0.01374471
0.062307844
0.23689461
0.70317141
1.6598683
3.2475867
5.4628404
8.181323
11.206276
14.332652
17.3992
20.2943
22.955499
25.358664
27.504036
29.405321
31.082853
32.559051
33.85546
34.991431
35.983556
36.844769
37.581864
38.186873
38.578008
38.519253
37.726172
0.0010885385
0.0010895465
0.0010956011