/*--------------------------------*- C++ -*----------------------------------*\
| =========                 |                                                 |
| \\      /  F ield         | OpenFOAM: The Open Source CFD Toolbox           |
|  \\    /   O peration     | Version:  2212                                  |
|   \\  /    A nd           | Website:  www.openfoam.com                      |
|    \\/     M anipulation  |                                                 |
\*---------------------------------------------------------------------------*/
FoamFile
{
    version     2.0;
    format      ascii;
    arch        "LSB;label=32;scalar=64";
    class       volScalarField;
    location    "5";
    object      nut;
}
// * * * * * * * * * * * * * * * * * * * * * * * * * * * * * * * * * * * * * //

dimensions      [0 2 -1 0 0 0 0];

internalField   nonuniform List<scalar> 
20480
(
4.4999216e-05
5.1967419e-05
5.1451655e-05
4.8809291e-05
4.7464584e-05
4.6941969e-05
4.6662566e-05
4.6427872e-05
4.6205012e-05
4.6000747e-05
4.5821283e-05
4.5665345e-05
4.5528471e-05
4.5406658e-05
4.5296974e-05
4.5197475e-05
4.5106808e-05
4.5023848e-05
4.4947733e-05
4.4877556e-05
4.4812725e-05
4.4752615e-05
4.4696774e-05
4.4644485e-05
4.4594569e-05
4.4543698e-05
4.4481896e-05
4.4374572e-05
4.4128359e-05
4.35281e-05
4.2546763e-05
4.2013964e-05
4.5013694e-05
5.1960921e-05
5.1447119e-05
4.8807002e-05
4.7459784e-05
4.6935339e-05
4.6656142e-05
4.642222e-05
4.619991e-05
4.5996008e-05
4.5816847e-05
4.5661186e-05
4.5524565e-05
4.540298e-05
4.52935e-05
4.5194183e-05
4.510368e-05
4.5020866e-05
4.4944885e-05
4.4874828e-05
4.4810107e-05
4.4750097e-05
4.4694349e-05
4.4642145e-05
4.4592314e-05
4.4541535e-05
4.4479861e-05
4.4372804e-05
4.4127119e-05
4.3527922e-05
4.2547663e-05
4.2014696e-05
4.5054449e-05
5.1978299e-05
5.1458227e-05
4.8816468e-05
4.7466189e-05
4.6939803e-05
4.6660591e-05
4.6426954e-05
4.6204565e-05
4.6000425e-05
4.5821029e-05
4.5665159e-05
4.5528349e-05
4.540659e-05
4.5296946e-05
4.5197477e-05
4.5106834e-05
4.5023889e-05
4.4947787e-05
4.4877617e-05
4.4812792e-05
4.4752685e-05
4.4696849e-05
4.4644566e-05
4.4594668e-05
4.4543852e-05
4.4482219e-05
4.4375413e-05
4.4130405e-05
4.353206e-05
4.2551943e-05
4.2016299e-05
4.511827e-05
5.1997281e-05
5.1456693e-05
4.8814765e-05
4.746464e-05
4.6937362e-05
4.6658336e-05
4.6425112e-05
4.6202875e-05
4.5998802e-05
4.5819491e-05
4.5663716e-05
4.5526999e-05
4.5405329e-05
4.5295766e-05
4.5196371e-05
4.5105795e-05
4.5022911e-05
4.4946865e-05
4.4876743e-05
4.4811964e-05
4.4751898e-05
4.4696101e-05
4.4643859e-05
4.4594011e-05
4.4543284e-05
4.4481873e-05
4.4375657e-05
4.4132115e-05
4.3535788e-05
4.2557222e-05
4.2018858e-05
4.5203921e-05
5.202168e-05
5.1453952e-05
4.8814339e-05
4.7465907e-05
4.6937674e-05
4.6658693e-05
4.6425897e-05
4.6203835e-05
4.599982e-05
4.5820554e-05
4.5664812e-05
4.5528113e-05
4.540645e-05
4.5296885e-05
4.519748e-05
4.510689e-05
4.5023986e-05
4.4947918e-05
4.4877772e-05
4.4812968e-05
4.4752878e-05
4.4697061e-05
4.4644802e-05
4.4594957e-05
4.4544284e-05
4.4483104e-05
4.4377586e-05
4.4135858e-05
4.3541894e-05
4.256489e-05
4.2022218e-05
4.5310842e-05
5.2051504e-05
5.1449676e-05
4.8813336e-05
4.7467057e-05
4.6937413e-05
4.6658239e-05
4.6425831e-05
4.6203924e-05
4.5999942e-05
4.5820705e-05
4.5664989e-05
4.5528311e-05
4.5406668e-05
4.5297117e-05
4.5197725e-05
4.5107144e-05
4.5024247e-05
4.4948186e-05
4.4878042e-05
4.4813243e-05
4.4753154e-05
4.4697344e-05
4.4645095e-05
4.4595282e-05
4.4544704e-05
4.4483839e-05
4.4379219e-05
4.41398e-05
4.3548889e-05
4.2574129e-05
4.2026465e-05
4.5438687e-05
5.20864e-05
5.1443782e-05
4.881172e-05
4.7468306e-05
4.6937181e-05
4.6657864e-05
4.642597e-05
4.6204299e-05
4.60004e-05
4.582123e-05
4.5665568e-05
4.5528933e-05
4.5407323e-05
4.5297795e-05
4.519842e-05
4.5107851e-05
4.5024959e-05
4.4948903e-05
4.4878755e-05
4.4813954e-05
4.4753861e-05
4.4698049e-05
4.4645805e-05
4.4596019e-05
4.4545546e-05
4.4485042e-05
4.4381471e-05
4.4144777e-05
4.3557453e-05
4.2585363e-05
4.2031583e-05
4.5587112e-05
5.2125858e-05
5.1436249e-05
4.8809532e-05
4.7469659e-05
4.6936953e-05
4.6657461e-05
4.6426103e-05
4.6204665e-05
4.6000835e-05
4.5821717e-05
4.5666096e-05
4.552949e-05
4.5407904e-05
4.5298391e-05
4.5199026e-05
4.5108466e-05
4.5025578e-05
4.4949526e-05
4.4879377e-05
4.4814578e-05
4.4754482e-05
4.4698674e-05
4.4646439e-05
4.4596691e-05
4.454634e-05
4.4486257e-05
4.4383901e-05
4.4150368e-05
4.3567235e-05
4.2598428e-05
4.2037629e-05
4.5755759e-05
5.2169303e-05
5.1427068e-05
4.8806809e-05
4.7471087e-05
4.6936704e-05
4.6657018e-05
4.6426233e-05
4.6205049e-05
4.6001302e-05
4.5822248e-05
4.5666677e-05
4.5530108e-05
4.5408553e-05
4.5299062e-05
4.5199714e-05
4.5109168e-05
4.5026291e-05
4.495025e-05
4.4880106e-05
4.4815313e-05
4.4755219e-05
4.469942e-05
4.4647198e-05
4.4597493e-05
4.4547282e-05
4.4487673e-05
4.4386683e-05
4.4156727e-05
4.357836e-05
4.2613447e-05
4.2044635e-05
4.5944267e-05
5.2216135e-05
5.1416233e-05
4.8803582e-05
4.7472556e-05
4.6936415e-05
4.6656529e-05
4.6426354e-05
4.6205441e-05
4.6001782e-05
4.5822796e-05
4.5667275e-05
4.5530742e-05
4.5409217e-05
4.5299745e-05
4.5200414e-05
4.5109884e-05
4.5027019e-05
4.4950993e-05
4.4880855e-05
4.4816073e-05
4.4755985e-05
4.4700197e-05
4.4647991e-05
4.4598336e-05
4.4548281e-05
4.4489195e-05
4.438972e-05
4.4163753e-05
4.3590744e-05
4.2630431e-05
4.2052663e-05
4.6152306e-05
5.2265785e-05
5.1403756e-05
4.8799888e-05
4.7474036e-05
4.6936068e-05
4.665599e-05
4.6426454e-05
4.6205825e-05
4.6002263e-05
4.5823348e-05
4.566788e-05
4.5531385e-05
4.5409891e-05
4.530044e-05
4.520113e-05
4.5110621e-05
4.5027773e-05
4.4951768e-05
4.4881643e-05
4.4816878e-05
4.47568e-05
4.4701029e-05
4.4648844e-05
4.4599245e-05
4.454936e-05
4.4490846e-05
4.439303e-05
4.4171455e-05
4.3604395e-05
4.2649456e-05
4.2061778e-05
4.6379638e-05
5.2317771e-05
5.138968e-05
4.8795775e-05
4.7475496e-05
4.6935644e-05
4.665539e-05
4.6426521e-05
4.6206189e-05
4.6002731e-05
4.5823894e-05
4.5668481e-05
4.5532025e-05
4.5410564e-05
4.5301137e-05
4.520185e-05
4.5111365e-05
4.502854e-05
4.4952561e-05
4.4882455e-05
4.4817712e-05
4.4757649e-05
4.4701899e-05
4.4649739e-05
4.4600202e-05
4.45505e-05
4.4492603e-05
4.4396581e-05
4.4179794e-05
4.3619287e-05
4.2670586e-05
4.2072063e-05
4.6626195e-05
5.2371752e-05
5.1374095e-05
4.8791299e-05
4.7476907e-05
4.6935126e-05
4.6654722e-05
4.6426545e-05
4.6206521e-05
4.6003177e-05
4.5824423e-05
4.5669069e-05
4.5532655e-05
4.541123e-05
4.5301831e-05
4.5202569e-05
4.5112114e-05
4.5029316e-05
4.495337e-05
4.4883288e-05
4.4818574e-05
4.475853e-05
4.4702805e-05
4.4650673e-05
4.4601203e-05
4.4551697e-05
4.4494458e-05
4.4400362e-05
4.4188751e-05
4.363541e-05
4.2693913e-05
4.2083621e-05
4.6892164e-05
5.2427563e-05
5.1357142e-05
4.8786532e-05
4.7478247e-05
4.6934501e-05
4.6653982e-05
4.6426516e-05
4.6206811e-05
4.6003591e-05
4.5824929e-05
4.5669639e-05
4.5533271e-05
4.5411888e-05
4.5302518e-05
4.5203288e-05
4.5112866e-05
4.50301e-05
4.4954193e-05
4.488414e-05
4.4819459e-05
4.4759437e-05
4.4703741e-05
4.4651638e-05
4.4602239e-05
4.4552939e-05
4.4496399e-05
4.4404354e-05
4.4198309e-05
4.3652772e-05
4.2719579e-05
4.209665e-05
4.7178072e-05
5.2485223e-05
5.1339009e-05
4.8781556e-05
4.7479497e-05
4.6933757e-05
4.6653167e-05
4.6426429e-05
4.6207052e-05
4.6003969e-05
4.5825409e-05
4.567019e-05
4.5533874e-05
4.5412536e-05
4.5303201e-05
4.5204006e-05
4.5113622e-05
4.5030893e-05
4.4955029e-05
4.4885008e-05
4.4820364e-05
4.4760367e-05
4.47047e-05
4.4652628e-05
4.4603303e-05
4.4554222e-05
4.4498425e-05
4.4408578e-05
4.4208552e-05
4.3671642e-05
4.2748277e-05
4.2112262e-05
4.7484861e-05
5.2544914e-05
5.1319926e-05
4.8776465e-05
4.7480644e-05
4.6932889e-05
4.6652277e-05
4.6426283e-05
4.6207244e-05
4.6004311e-05
4.5825865e-05
4.5670725e-05
4.5534468e-05
4.5413182e-05
4.5303886e-05
4.520473e-05
4.5114386e-05
4.5031697e-05
4.4955879e-05
4.4885892e-05
4.4821287e-05
4.4761314e-05
4.4705679e-05
4.4653642e-05
4.4604404e-05
4.4555584e-05
4.450067e-05
4.4413449e-05
4.4220699e-05
4.3695217e-05
4.2786875e-05
4.2141974e-05
4.7813925e-05
5.260693e-05
5.1300148e-05
4.877136e-05
4.7481683e-05
4.6931899e-05
4.6651321e-05
4.6426082e-05
4.6207392e-05
4.6004625e-05
4.5826304e-05
4.5671251e-05
4.5535061e-05
4.5413833e-05
4.5304582e-05
4.5205468e-05
4.5115166e-05
4.5032517e-05
4.4956747e-05
4.4886793e-05
4.4822228e-05
4.4762283e-05
4.4706692e-05
4.465473e-05
4.4605707e-05
4.4557547e-05
4.4504732e-05
4.4423749e-05
4.424854e-05
4.3759321e-05
4.2911863e-05
4.2316802e-05
4.8167106e-05
5.2671585e-05
5.1279929e-05
4.8766347e-05
4.7482611e-05
4.6930791e-05
4.6650311e-05
4.6425835e-05
4.6207503e-05
4.6004918e-05
4.5826734e-05
4.5671779e-05
4.5535663e-05
4.5414501e-05
4.5305298e-05
4.5206227e-05
4.5115969e-05
4.5033359e-05
4.4957637e-05
4.4887718e-05
4.4823205e-05
4.476333e-05
4.4707924e-05
4.465648e-05
4.4609053e-05
4.456578e-05
4.4527845e-05
4.4490938e-05
4.444075e-05
4.4253764e-05
4.3973194e-05
4.4151194e-05
4.8546638e-05
5.2739115e-05
5.1259512e-05
4.8761534e-05
4.7483435e-05
4.6929581e-05
4.6649265e-05
4.642556e-05
4.6207596e-05
4.6005207e-05
4.5827173e-05
4.5672323e-05
4.553629e-05
4.5415199e-05
4.5306046e-05
4.5207021e-05
4.5116805e-05
4.5034237e-05
4.4958572e-05
4.4888729e-05
4.4824411e-05
4.4765069e-05
4.471133e-05
4.4665048e-05
4.4633584e-05
4.4639159e-05
4.4749161e-05
4.5151562e-05
4.6356552e-05
4.9324033e-05
5.5322706e-05
6.5541803e-05
4.8955037e-05
5.2809565e-05
5.1239096e-05
4.8757023e-05
4.7484164e-05
4.6928288e-05
4.6648208e-05
4.6425278e-05
4.6207689e-05
4.6005512e-05
4.5827638e-05
4.5672902e-05
4.5536957e-05
4.5415942e-05
4.5306842e-05
4.5207864e-05
4.51177e-05
4.5035209e-05
4.4959734e-05
4.4890413e-05
4.4827757e-05
4.4773676e-05
4.473658e-05
4.4742318e-05
4.4871939e-05
4.5371537e-05
4.6980756e-05
5.1848265e-05
6.5871485e-05
0.00010170961
0.00017700243
0.00031674127
4.9394917e-05
5.2882684e-05
5.1218823e-05
4.8752905e-05
4.7484807e-05
4.6926935e-05
4.6647168e-05
4.6425014e-05
4.6207806e-05
4.6005853e-05
4.5828148e-05
4.567353e-05
4.5537679e-05
4.5416745e-05
4.5307708e-05
4.5208807e-05
4.5118805e-05
4.5036781e-05
4.4962827e-05
4.4898451e-05
4.485188e-05
4.4849339e-05
4.4975562e-05
4.5493235e-05
4.7211754e-05
5.2590982e-05
6.8992558e-05
0.00011766866
0.00025529562
0.00059719211
0.0012764445
0.0025068232
4.9868778e-05
5.2957855e-05
5.1198784e-05
4.8749265e-05
4.7485379e-05
4.6925553e-05
4.6646178e-05
4.6424798e-05
4.6207975e-05
4.6006256e-05
4.5828725e-05
4.567423e-05
4.5538481e-05
4.5417652e-05
4.530876e-05
4.5210241e-05
4.5121491e-05
4.5043698e-05
4.4983977e-05
4.4966623e-05
4.5073213e-05
4.5562813e-05
4.7251792e-05
5.2673984e-05
6.9590649e-05
0.00012127091
0.00027449667
0.00070085667
0.0017396209
0.0037308517
0.0065239784
0.010276059
5.0378719e-05
5.3034046e-05
5.1178996e-05
4.8746169e-05
4.7485889e-05
4.6924169e-05
4.6645269e-05
4.6424659e-05
4.620822e-05
4.6006742e-05
4.5829391e-05
4.5675033e-05
4.5539439e-05
4.5418923e-05
4.5310959e-05
4.5215685e-05
4.5138304e-05
4.5099581e-05
4.5171524e-05
4.5590193e-05
4.7119395e-05
5.2185083e-05
6.8381496e-05
0.00011896717
0.00027225278
0.00070984831
0.0018166399
0.0041032998
0.0077268199
0.012069982
0.01618065
0.02056068
5.0926167e-05
5.3109823e-05
5.1159424e-05
4.8743662e-05
4.7486342e-05
4.692281e-05
4.6644474e-05
4.6424625e-05
4.6208567e-05
4.600734e-05
4.5830194e-05
4.5676087e-05
4.5541127e-05
4.5422813e-05
4.5322894e-05
4.5256695e-05
4.5281703e-05
4.5595275e-05
4.6855795e-05
5.1213787e-05
6.5575538e-05
0.0001116098
0.000254562
0.00067276629
0.0017567565
0.0040498858
0.0077822096
0.012456598
0.017281487
0.021751901
0.025569573
0.029505791
5.1511607e-05
5.3183429e-05
5.1140009e-05
4.8741782e-05
4.7486739e-05
4.6921505e-05
4.664382e-05
4.6424722e-05
4.6209049e-05
4.6008123e-05
4.5831418e-05
4.5678594e-05
4.5548534e-05
4.5449108e-05
4.5419747e-05
4.5609005e-05
4.6533967e-05
4.9944826e-05
6.1638439e-05
0.00010034463
0.00022422556
0.00059825651
0.0016017967
0.003796898
0.007462661
0.01212525
0.017014217
0.021706418
0.02606625
0.03003232
0.033477039
0.036980957
5.2134368e-05
5.3252872e-05
5.1120678e-05
4.8740553e-05
4.7487079e-05
4.6920275e-05
4.6643333e-05
4.6424981e-05
4.6209769e-05
4.6009585e-05
4.5835382e-05
4.5692818e-05
4.5604402e-05
4.566688e-05
4.6242792e-05
4.8622094e-05
5.7248105e-05
8.7008791e-05
0.00018589936
0.00049661353
0.0013701254
0.0033797672
0.0068862791
0.011468945
0.016320012
0.02098913
0.025374755
0.029495525
0.033360976
0.036947299
0.040137204
0.043300473
5.2792557e-05
5.3316042e-05
5.1101341e-05
4.8739987e-05
4.7487367e-05
4.691917e-05
4.6643089e-05
4.6425597e-05
4.6211576e-05
4.6015892e-05
4.586166e-05
4.5804889e-05
4.6065965e-05
4.7485713e-05
5.3123458e-05
7.3719719e-05
0.00014550309
0.00038241881
0.0010889799
0.0028310287
0.0060794275
0.010529307
0.015332559
0.019964966
0.024307624
0.028393911
0.032269122
0.035971604
0.039493907
0.042761714
0.045703725
0.048434238
5.348323e-05
5.3370867e-05
5.1081739e-05
4.8739896e-05
4.7487417e-05
4.6918072e-05
4.6643166e-05
4.6427671e-05
4.6221078e-05
4.6061069e-05
4.6070641e-05
4.6719197e-05
4.9845984e-05
6.2335977e-05
0.00010879051
0.00027178883
0.00079393592
0.0022004452
0.0050772123
0.009317685
0.014062464
0.018670437
0.022978396
0.027018854
0.030850013
0.03452217
0.038028449
0.041368293
0.044508909
0.047234314
0.049852665
0.052104906
5.4203083e-05
5.3416685e-05
5.1062372e-05
4.8740589e-05
4.7487391e-05
4.6917206e-05
4.6645006e-05
4.6440663e-05
4.6291824e-05
4.6418559e-05
4.7747685e-05
5.4055181e-05
7.9960768e-05
0.00017853147
0.00052270507
0.0015550423
0.0039393288
0.0078520347
0.01250818
0.017105483
0.021395257
0.025401165
0.029192826
0.032819552
0.036278009
0.039583419
0.04257298
0.045327084
0.048046958
0.050738277
0.053370818
0.055771114
5.4947303e-05
5.3455577e-05
5.1045985e-05
4.8744705e-05
4.7490226e-05
4.692099e-05
4.6663371e-05
4.6542736e-05
4.6848654e-05
4.9238957e-05
6.0927856e-05
0.00011100799
0.00030608981
0.00097096809
0.0027604709
0.0061715797
0.010664799
0.0152618
0.019554337
0.023540778
0.027302187
0.030890936
0.034308355
0.037567326
0.040459298
0.043219738
0.045970749
0.048750852
0.051589337
0.054493952
0.057363174
0.060058435
5.5695471e-05
5.3476726e-05
5.1021071e-05
4.8741103e-05
4.7488094e-05
4.6934626e-05
4.6784767e-05
4.7309945e-05
5.1133796e-05
7.090524e-05
0.00016036483
0.00051655776
0.0016730441
0.0043679908
0.008536551
0.013122802
0.017445431
0.021432071
0.025172557
0.02873217
0.032118994
0.035342944
0.038168825
0.040940635
0.043730255
0.046561955
0.049511146
0.052571751
0.055725932
0.058928826
0.062058564
0.065007648
5.6448374e-05
5.3507335e-05
5.1009626e-05
4.8743978e-05
4.7502889e-05
4.7066333e-05
4.772116e-05
5.3126147e-05
8.3324697e-05
0.00022916615
0.00082149698
0.0026147313
0.0061546227
0.010651785
0.015039339
0.019057551
0.022791908
0.02633528
0.029703181
0.032898891
0.035696851
0.038486661
0.041315139
0.044219925
0.047258809
0.050408114
0.053682991
0.057054022
0.060484367
0.06390464
0.067176316
0.070292979
5.7176431e-05
5.3557237e-05
5.1023737e-05
4.8767195e-05
4.7624477e-05
4.8033515e-05
5.4533716e-05
9.5095107e-05
0.00030670356
0.0011833377
0.0036340749
0.0077358234
0.012217493
0.016346118
0.020126258
0.023686549
0.027064579
0.030278698
0.033097864
0.035900808
0.038751876
0.041711136
0.044812554
0.048038621
0.051390238
0.054834366
0.058344315
0.06189283
0.065449026
0.068949957
0.072225764
0.075411569
5.7831963e-05
5.360783e-05
5.1052518e-05
4.8857677e-05
4.8403375e-05
5.4407885e-05
9.9217868e-05
0.00035745677
0.0014687095
0.004402781
0.0087317858
0.013045638
0.016949344
0.020566214
0.023983479
0.02723502
0.030137533
0.032957299
0.035827768
0.038824097
0.041970248
0.04525832
0.04867124
0.052173318
0.055735293
0.059331825
0.062938709
0.066534344
0.070094424
0.073565983
0.076808584
0.079933921
5.8425934e-05
5.3674422e-05
5.1135631e-05
4.9368215e-05
5.3079938e-05
9.2381214e-05
0.0003521137
0.0015611808
0.0047325285
0.0090902546
0.013228207
0.016961558
0.020458986
0.023771391
0.026812333
0.029646385
0.032526705
0.03553278
0.038700999
0.042027235
0.045484527
0.049033489
0.052640041
0.056275167
0.059913365
0.063535204
0.067124639
0.070666094
0.074140488
0.077502726
0.080682894
0.083672286
5.8965282e-05
5.3771598e-05
5.1445622e-05
5.2087337e-05
7.8457435e-05
0.0002897763
0.0014178687
0.0045818332
0.0088833424
0.012884309
0.016501244
0.019901522
0.023140012
0.026015859
0.028898346
0.031885863
0.035051216
0.038386701
0.04186741
0.04544826
0.049089688
0.052757658
0.056424081
0.06006742
0.063670603
0.067219924
0.070704746
0.07411429
0.077433885
0.080625668
0.083664581
0.086506386
5.9451289e-05
5.39635e-05
5.2788889e-05
6.5429335e-05
0.00020053358
0.0010830569
0.0039893885
0.0081915952
0.012100611
0.015642802
0.018977668
0.022084617
0.024975731
0.02792854
0.03106231
0.034374918
0.037856923
0.041454468
0.045121619
0.048818163
0.052511817
0.056177717
0.059796538
0.063353328
0.066836958
0.070238614
0.073551453
0.076768571
0.079879474
0.082854124
0.085689908
0.088376347
5.9888058e-05
5.4510827e-05
5.8544567e-05
0.0001245217
0.00067892854
0.0030553759
0.0070861775
0.010941432
0.014440012
0.017740068
0.020763155
0.023715413
0.026778347
0.030034346
0.033487675
0.037082183
0.040764458
0.04448618
0.048208315
0.0519011
0.055541734
0.059113005
0.062602134
0.065999498
0.069298289
0.072493822
0.075582853
0.078562044
0.081424946
0.084149821
0.086747955
0.089275148
6.0289465e-05
5.6377144e-05
8.1483748e-05
0.00034883891
0.0019643072
0.0056367472
0.0094561798
0.012933103
0.016222965
0.019224942
0.022242424
0.025421975
0.028801074
0.032363317
0.036044246
0.039785224
0.043536955
0.047262523
0.050933947
0.054530434
0.05803662
0.061441241
0.06473655
0.067917563
0.070981525
0.073927506
0.076755729
0.079466213
0.082056319
0.084512553
0.086859919
0.089232715
6.0700083e-05
6.2835272e-05
0.00016314352
0.00099944319
0.0039470281
0.0076901418
0.011153824
0.014449929
0.017476146
0.020563998
0.023845382
0.027335148
0.030988081
0.03473562
0.038515524
0.042279938
0.045992769
0.049627732
0.053165804
0.056593206
0.059900504
0.063081742
0.06613388
0.069056276
0.071850088
0.074517839
0.077062823
0.079487981
0.081794042
0.083975048
0.086072636
0.088305279
6.1256958e-05
8.3862731e-05
0.00040468986
0.0022419543
0.0057058595
0.0091350511
0.012438041
0.015517444
0.018681189
0.022049786
0.025630658
0.029358105
0.033157225
0.036963646
0.040729038
0.044418136
0.048006057
0.051475241
0.054813798
0.058014197
0.061072558
0.063988036
0.066762159
0.069398301
0.071901102
0.074275999
0.076528722
0.078664485
0.080686793
0.082595783
0.084454073
0.086567798
6.2358749e-05
0.00014510795
0.00094606832
0.0036317518
0.00693155
0.010207753
0.013347889
0.016589537
0.020033697
0.023689538
0.027479016
0.031319664
0.035144304
0.038903456
0.042562264
0.046096434
0.049489853
0.052732615
0.055819507
0.058749063
0.061522837
0.064144771
0.066620496
0.068956775
0.071161004
0.073240791
0.075203551
0.077056053
0.078803934
0.080451342
0.082087448
0.084107192
6.5087781e-05
0.00029459018
0.0017758147
0.0046582113
0.0078055938
0.010972607
0.014283126
0.017792297
0.021511835
0.02535675
0.029235283
0.033075261
0.036825532
0.040451109
0.043928396
0.04724253
0.050385547
0.05335499
0.056152269
0.058781711
0.061249807
0.06356457
0.065734899
0.067770083
0.069679408
0.071471858
0.073155784
0.074738838
0.076228169
0.077629708
0.079064978
0.081016223
7.2126875e-05
0.00058058829
0.0025557772
0.0053448394
0.0084239538
0.011761416
0.015320496
0.019096226
0.022995694
0.026914809
0.030773635
0.034517527
0.038111202
0.041531964
0.044766394
0.047808717
0.050659261
0.053322941
0.055807351
0.058121819
0.060276803
0.062283366
0.064152664
0.065895578
0.067522443
0.069042869
0.070465481
0.071798236
0.073049243
0.074225226
0.075482192
0.077388327
8.9156846e-05
0.00096974256
0.0030702248
0.0058087114
0.0090499784
0.012619392
0.01644118
0.020398492
0.024366772
0.028254103
0.032000185
0.035568018
0.038936314
0.042093765
0.045037136
0.047769928
0.050300615
0.052640821
0.054803233
0.056800928
0.058647112
0.060354778
0.061936342
0.063403405
0.064766609
0.066035555
0.067218587
0.068323508
0.06935896
0.07033593
0.071433178
0.073313636
0.0001131871
0.0012863721
0.0033775895
0.0062580969
0.0097149122
0.013550452
0.017565787
0.021596419
0.025527957
0.029290811
0.032844842
0.03616899
0.039255291
0.042104049
0.04472242
0.047122837
0.049320959
0.051333778
0.05317751
0.054867539
0.056418583
0.057844527
0.059158166
0.060371079
0.061493609
0.062534847
0.063502417
0.064403656
0.065247417
0.066054292
0.067006918
0.068876235
0.00013028535
0.0014428853
0.003641367
0.0067337411
0.010452701
0.014499678
0.01860395
0.022601488
0.02640219
0.029960519
0.033254845
0.036279494
0.0390404
0.041549643
0.043824137
0.04588396
0.047750275
0.049443687
0.050982205
0.052382126
0.053658607
0.054825547
0.055895396
0.056879131
0.057786337
0.058625232
0.059402402
0.060124532
0.060800467
0.061460198
0.06228563
0.064152673
0.00013885754
0.0015427782
0.0039218326
0.0072340928
0.011214047
0.015384589
0.019472793
0.023340785
0.026928543
0.030213494
0.033191999
0.035874644
0.038281691
0.040435956
0.042362357
0.044086587
0.045633274
0.047024782
0.048279235
0.049412676
0.050439855
0.051374003
0.052226675
0.053007823
0.053725964
0.054388206
0.054999896
0.055567008
0.056098199
0.056628753
0.0573449
0.059211459
0.0001417549
0.0016476885
0.0042133746
0.0077745545
0.011938629
0.016130526
0.020102746
0.023755433
0.027058747
0.030012632
0.032632532
0.03494598
0.036986545
0.038785259
0.040372512
0.041777269
0.043025539
0.044139729
0.045136623
0.046031165
0.046837093
0.047566474
0.048229584
0.048835079
0.049390228
0.04990091
0.050371148
0.05080624
0.051214491
0.051633074
0.052254184
0.054113336
0.00014357054
0.001755555
0.0045144343
0.0083210904
0.012566037
0.016672144
0.020436265
0.023797502
0.026755343
0.029333684
0.031567921
0.033501455
0.035178368
0.036634334
0.03790243
0.039012579
0.039990279
0.040856539
0.0416257
0.042311108
0.042925094
0.043478227
0.043979274
0.044435453
0.044852724
0.04523571
0.045587127
0.04591171
0.046217268
0.046540578
0.047077116
0.048912087
0.00014567063
0.0018627945
0.0048215996
0.0088126885
0.013031645
0.016951543
0.020424712
0.023427945
0.025992061
0.028166597
0.030005537
0.031564831
0.032894924
0.034032181
0.035009781
0.035856557
0.036595938
0.037246467
0.037819323
0.038326102
0.038777493
0.039182371
0.039547889
0.03987981
0.040182813
0.040460334
0.040713922
0.040947856
0.041169334
0.041413031
0.041872348
0.043656625
0.00014769154
0.0019661607
0.005110591
0.0091885143
0.013275841
0.016918098
0.020026481
0.022617126
0.024755949
0.026517229
0.027969117
0.029175022
0.030186969
0.031038296
0.031760285
0.032379019
0.032914732
0.033382838
0.033791154
0.034149541
0.034466893
0.034750314
0.035005363
0.035236422
0.03544699
0.03563949
0.035814647
0.035976213
0.036130691
0.036309007
0.036696099
0.038395303
0.00014887007
0.0020581144
0.0053458146
0.0093929983
0.013247096
0.016527502
0.019207715
0.02134797
0.023050635
0.024409311
0.025499333
0.026385681
0.027117314
0.027721842
0.02822717
0.028655417
0.029022949
0.029341798
0.029616964
0.029856397
0.03006707
0.030254358
0.030422351
0.030574202
0.030712385
0.030838573
0.030953178
0.031059101
0.031162045
0.031287794
0.031606052
0.033180321
0.0001484166
0.0021245141
0.005486223
0.0093779857
0.012900274
0.015741876
0.017946446
0.019621239
0.020900318
0.02188689
0.022655304
0.023266267
0.023761883
0.024163202
0.024493264
0.024769451
0.025004087
0.025205937
0.025378392
0.025526985
0.02565673
0.025771441
0.025873952
0.025966396
0.026050415
0.026127106
0.026196702
0.026261327
0.026325635
0.02641037
0.026662423
0.02806639
0.00014550081
0.0021467523
0.0054879924
0.0091028293
0.0121952
0.014534007
0.016240004
0.017462718
0.018355121
0.019018264
0.019517948
0.01990529
0.020213202
0.020457316
0.02065412
0.020816065
0.020951748
0.021067096
0.021164291
0.021246848
0.021318103
0.021380576
0.021436095
0.021485999
0.021531293
0.021572634
0.021610107
0.02164519
0.021681288
0.021735592
0.021925304
0.023113334
0.00013925382
0.0021029485
0.0053074707
0.0085302395
0.011100656
0.012898216
0.014116886
0.014933271
0.015498791
0.015901762
0.016194125
0.01641345
0.016582971
0.016713319
0.016815138
0.016896558
0.016963088
0.017018393
0.017063672
0.017100988
0.017132386
0.017159398
0.017183096
0.017204238
0.017223373
0.017240841
0.017256609
0.01727167
0.017288411
0.017321085
0.017456057
0.018393631
0.00012885095
0.0019700682
0.0049040231
0.0076257458
0.0096093218
0.010870769
0.011654807
0.01214155
0.012457478
0.012670189
0.01281601
0.012919493
0.012995334
0.013049858
0.013089319
0.013118539
0.013140689
0.01315779
0.013170312
0.013179323
0.013185957
0.013191043
0.01319513
0.01319858
0.013201639
0.013204438
0.013206878
0.013209614
0.013214393
0.013231974
0.013323268
0.01400348
0.0001137089
0.0017291506
0.0042490262
0.0063797789
0.0077673014
0.0085579125
0.0090009363
0.0092499453
0.0093964848
0.0094855054
0.0095392367
0.0095719141
0.0095917484
0.0096018839
0.00960559
0.0096054062
0.0096029292
0.0095991019
0.0095939474
0.0095879096
0.0095815342
0.0095752024
0.0095691359
0.0095634573
0.0095582348
0.0095534802
0.009549072
0.0095454318
0.0095438179
0.009551557
0.0096105189
0.010061453
9.3887098e-05
0.0013757961
0.0033484073
0.0048511984
0.0057115815
0.0061420364
0.0063524772
0.0064526357
0.0064998989
0.0065200441
0.0065247673
0.0065212658
0.0065134942
0.0065026282
0.0064901081
0.0064770679
0.0064641675
0.0064517303
0.0064395741
0.0064278108
0.0064166481
0.0064062137
0.0063965551
0.0063876739
0.0063795513
0.0063721462
0.0063653444
0.0063594078
0.0063551856
0.0063574911
0.0063939222
0.0066653951
7.0732675e-05
0.00093777272
0.0022773724
0.0031920411
0.0036472545
0.0038406413
0.0039158529
0.0039382872
0.0039383694
0.0039285639
0.0039139684
0.0038976217
0.0038810693
0.0038645061
0.0038483974
0.0038331257
0.003818865
0.0038056436
0.0037932402
0.0037816231
0.0037708318
0.003760874
0.0037517246
0.003743341
0.0037356769
0.0037286795
0.003722262
0.003716575
0.0037121676
0.003712166
0.0037340462
0.0038820086
4.7615469e-05
0.0004931642
0.0012040598
0.0016429862
0.0018329894
0.0018937532
0.0019029751
0.0018934536
0.0018776664
0.0018601977
0.0018426317
0.0018258728
0.0018102919
0.0017957275
0.0017822077
0.0017697687
0.00175838
0.0017479663
0.001738353
0.001729467
0.0017212797
0.0017137565
0.0017068546
0.0017005282
0.0016947336
0.0016894274
0.001684558
0.0016802005
0.0016767221
0.0016761187
0.0016901906
0.0017712865
2.9056056e-05
0.00014443485
0.00033278477
0.00043575483
0.00047178495
0.00047709372
0.00047146573
0.00046246131
0.00045299777
0.00044399929
0.00043567601
0.00042812246
0.00042132888
0.00041516466
0.00040957075
0.000404507
0.00039992618
0.0003957767
0.00039198549
0.0003885113
0.0003853296
0.00038241765
0.00037975297
0.00037731396
0.00037508099
0.00037303558
0.00037116028
0.00036947385
0.00036811502
0.00036781083
0.00037352416
0.00041277687
1.7764497e-05
1.1835433e-05
2.0656513e-05
2.5702048e-05
2.725999e-05
2.7185901e-05
2.6566609e-05
2.5815224e-05
2.5084929e-05
2.441764e-05
2.381705e-05
2.3282476e-05
2.2808715e-05
2.2384601e-05
2.2003933e-05
2.1662325e-05
2.135549e-05
2.1079224e-05
2.0828349e-05
2.0599677e-05
2.0391161e-05
2.0200997e-05
2.0027493e-05
1.9869075e-05
1.9724341e-05
1.9591987e-05
1.9470919e-05
1.9362035e-05
1.9274612e-05
1.9255872e-05
1.9658787e-05
2.3309915e-05
1.6166522e-05
3.9295283e-06
3.1279919e-06
3.0006964e-06
2.9162078e-06
2.8215307e-06
2.7280714e-06
2.6424435e-06
2.566707e-06
2.5004335e-06
2.4424153e-06
2.3916605e-06
2.3471835e-06
2.307829e-06
2.272803e-06
2.2415324e-06
2.2135397e-06
2.1883993e-06
2.1656663e-06
2.1450205e-06
2.1262373e-06
2.1091322e-06
2.0935419e-06
2.0793198e-06
2.066339e-06
2.0544784e-06
2.0436855e-06
2.0339857e-06
2.0265974e-06
2.0257656e-06
2.0722928e-06
2.642257e-06
2.8257307e-06
5.7762067e-07
3.1395351e-07
2.4173705e-07
2.3462863e-07
2.4407959e-07
2.5229204e-07
2.5595293e-07
2.5565149e-07
2.5270364e-07
2.4829681e-07
2.4321589e-07
2.3795044e-07
2.3278119e-07
2.2785235e-07
2.2320955e-07
2.1886131e-07
2.1481074e-07
2.1105611e-07
2.0759393e-07
2.0441812e-07
2.0152301e-07
1.9890763e-07
1.9657685e-07
1.9455525e-07
1.9289915e-07
1.9172309e-07
1.9126478e-07
1.9219813e-07
1.9619831e-07
2.1372106e-07
3.7141816e-07
2.6371045e-06
5.3238705e-07
3.2558928e-07
5.0564568e-07
8.7276802e-07
1.1870245e-06
1.380181e-06
1.4778313e-06
1.5123837e-06
1.5106274e-06
1.4901163e-06
1.4606212e-06
1.4277563e-06
1.3945223e-06
1.3623575e-06
1.3316877e-06
1.3026348e-06
1.2753154e-06
1.249799e-06
1.2260911e-06
1.2041525e-06
1.1839305e-06
1.1653646e-06
1.1483909e-06
1.133073e-06
1.1196318e-06
1.1085319e-06
1.1008128e-06
1.0990778e-06
1.1131244e-06
1.1966642e-06
1.8708309e-06
3.052828e-06
8.0648604e-07
1.7744392e-06
9.0886292e-06
2.0350835e-05
2.9561556e-05
3.5152963e-05
3.7992218e-05
3.9038581e-05
3.9064279e-05
3.8565788e-05
3.7815049e-05
3.6967379e-05
3.6105394e-05
3.5268529e-05
3.4468448e-05
3.3708707e-05
3.2992844e-05
3.2323097e-05
3.1699824e-05
3.1122074e-05
3.0588489e-05
3.0097331e-05
2.9646615e-05
2.9237685e-05
2.8875809e-05
2.8572127e-05
2.8351806e-05
2.8274589e-05
2.859077e-05
3.0615618e-05
4.4573858e-05
3.928755e-06
2.3662838e-06
1.4177933e-05
8.7076077e-05
0.00019783734
0.00028562287
0.00033785274
0.0003644763
0.00037493064
0.00037634421
0.00037311528
0.00036758999
0.00036110267
0.0003543674
0.00034773193
0.00034130625
0.00033513286
0.00032925579
0.00032370704
0.00031850036
0.00031363646
0.00030911117
0.00030491509
0.00030103455
0.00029748474
0.00029431392
0.00029161911
0.00028961409
0.00028874951
0.00029113113
0.00030698745
0.00039569067
4.9080075e-06
5.4201537e-06
4.7031e-05
0.00031348335
0.00072793387
0.0010526233
0.0012465682
0.0013488733
0.0013947071
0.0014093095
0.0014077355
0.0013978431
0.0013840607
0.0013687578
0.0013531089
0.0013375153
0.0013221656
0.0013072601
0.0012929546
0.001279338
0.0012664496
0.0012543066
0.0012428999
0.0012321942
0.00122224
0.0012131775
0.0012052713
0.001199091
0.0011955174
0.0012001663
0.0012376635
0.0014429178
5.9738746e-06
9.5069994e-06
9.3270059e-05
0.00061854985
0.0014456485
0.0021439692
0.0025960421
0.0028555604
0.0029888718
0.0030494597
0.0030707751
0.0030709026
0.003060206
0.003044311
0.0030260835
0.0030066083
0.0029864492