/*--------------------------------*- C++ -*----------------------------------*\
| =========                 |                                                 |
| \\      /  F ield         | OpenFOAM: The Open Source CFD Toolbox           |
|  \\    /   O peration     | Version:  2212                                  |
|   \\  /    A nd           | Website:  www.openfoam.com                      |
|    \\/     M anipulation  |                                                 |
\*---------------------------------------------------------------------------*/
FoamFile
{
    version     2.0;
    format      ascii;
    arch        "LSB;label=32;scalar=64";
    class       volScalarField;
    location    "5";
    object      omega;
}
// * * * * * * * * * * * * * * * * * * * * * * * * * * * * * * * * * * * * * //

dimensions      [0 0 -1 0 0 0 0];

internalField   nonuniform List<scalar> 
20480
(
25.905697
25.915939
25.922258
25.924797
25.92654
25.928148
25.929466
25.930447
25.931152
25.931641
25.931953
25.932112
25.932138
25.932049
25.931856
25.931572
25.931204
25.93076
25.930246
25.929668
25.929031
25.928341
25.9276
25.926814
25.925985
25.925111
25.924178
25.923135
25.921808
25.919863
25.917013
25.915091
25.905716
25.915941
25.92225
25.924786
25.926523
25.928125
25.929437
25.930414
25.931117
25.931605
25.931915
25.932073
25.932099
25.93201
25.931818
25.931534
25.931167
25.930724
25.930212
25.929636
25.929
25.928311
25.927573
25.926788
25.92596
25.925088
25.924156
25.923114
25.921788
25.919845
25.916998
25.915079
25.90577
25.916005
25.922316
25.924855
25.926592
25.928192
25.929503
25.930481
25.931184
25.93167
25.931979
25.932136
25.93216
25.932069
25.931876
25.931591
25.931224
25.930781
25.930268
25.929692
25.929057
25.928368
25.927629
25.926844
25.926016
25.925143
25.92421
25.923168
25.921842
25.9199
25.91705
25.915132
25.905855
25.916097
25.922388
25.924915
25.926645
25.928237
25.929544
25.930519
25.931219
25.931703
25.93201
25.932165
25.932188
25.932096
25.931903
25.931618
25.931251
25.930809
25.930298
25.929723
25.92909
25.928403
25.927666
25.926883
25.926055
25.925183
25.924251
25.92321
25.921886
25.919948
25.917098
25.915185
25.90597
25.91622
25.922484
25.924997
25.92672
25.928305
25.929608
25.930581
25.93128
25.931762
25.932067
25.932221
25.932243
25.932151
25.931957
25.931672
25.931305
25.930864
25.930355
25.929782
25.929151
25.928465
25.92773
25.926948
25.926122
25.92525
25.924318
25.923278
25.921957
25.920024
25.917173
25.915266
25.906113
25.916375
25.922605
25.925102
25.926816
25.928393
25.929691
25.930661
25.931358
25.931838
25.93214
25.932292
25.932313
25.932219
25.932024
25.931739
25.931373
25.930932
25.930424
25.929853
25.929224
25.928541
25.927807
25.927027
25.926202
25.925331
25.9244
25.923362
25.922043
25.920118
25.917266
25.915367
25.906286
25.916563
25.922753
25.925233
25.926937
25.928504
25.929796
25.930764
25.931459
25.931937
25.932238
25.932388
25.932407
25.932313
25.932118
25.931832
25.931466
25.931026
25.930519
25.929949
25.929322
25.928641
25.92791
25.927131
25.926307
25.925437
25.924507
25.923471
25.922157
25.920239
25.917387
25.915498
25.90649
25.916785
25.922931
25.925391
25.927085
25.928643
25.929928
25.930894
25.931587
25.932064
25.932363
25.932512
25.932531
25.932436
25.93224
25.931954
25.931587
25.931148
25.930641
25.930073
25.929447
25.928768
25.928038
25.927261
25.926438
25.925569
25.924641
25.923607
25.922299
25.920391
25.917539
25.915662
25.906725
25.917044
25.923141
25.925583
25.927267
25.928814
25.930092
25.931055
25.931748
25.932224
25.932524
25.932672
25.93269
25.932594
25.932397
25.932111
25.931743
25.931304
25.930797
25.93023
25.929606
25.928928
25.928199
25.927423
25.926602
25.925734
25.924807
25.923777
25.922475
25.920579
25.917727
25.915863
25.906995
25.917342
25.923389
25.925811
25.927486
25.929022
25.930294
25.931255
25.931948
25.932424
25.932724
25.932873
25.932891
25.932794
25.932596
25.932309
25.931941
25.9315
25.930993
25.930426
25.929802
25.929125
25.928398
25.927623
25.926803
25.925937
25.925012
25.923985
25.92269
25.920807
25.917956
25.916109
25.907302
25.917683
25.923677
25.926082
25.927749
25.929273
25.930539
25.931498
25.932192
25.93267
25.932971
25.933121
25.933139
25.933042
25.932844
25.932554
25.932185
25.931743
25.931236
25.930668
25.930044
25.929367
25.92864
25.927866
25.927047
25.926182
25.925259
25.924237
25.92295
25.921082
25.918232
25.916403
25.90765
25.918072
25.924012
25.9264
25.928061
25.929575
25.930833
25.931792
25.932487
25.932968
25.933271
25.933422
25.933441
25.933344
25.933145
25.932854
25.932483
25.932039
25.93153
25.930961
25.930336
25.929658
25.928932
25.928158
25.92734
25.926477
25.925556
25.924539
25.92326
25.921409
25.918561
25.916752
25.908044
25.918514
25.924398
25.926772
25.928429
25.929932
25.931184
25.932143
25.93284
25.933324
25.93363
25.933783
25.933804
25.933707
25.933506
25.933214
25.93284
25.932394
25.931882
25.931311
25.930684
25.930006
25.929279
25.928505
25.927688
25.926825
25.925907
25.924895
25.923626
25.921793
25.918947
25.917161
25.908489
25.919012
25.92484
25.927204
25.928857
25.930351
25.931598
25.932556
25.933256
25.933744
25.934053
25.934209
25.934231
25.934134
25.933933
25.933638
25.933262
25.932812
25.932298
25.931724
25.931095
25.930415
25.929686
25.928912
25.928095
25.927234
25.926317
25.925311
25.924051
25.922238
25.919395
25.917633
25.908989
25.919572
25.925342
25.927699
25.929353
25.930839
25.93208
25.933038
25.933741
25.934233
25.934546
25.934705
25.934728
25.934631
25.934428
25.934132
25.933752
25.933299
25.932781
25.932204
25.931572
25.930889
25.930159
25.929384
25.928566
25.927706
25.926791
25.92579
25.924541
25.922748
25.919909
25.918173
25.909549
25.920196
25.925909
25.928262
25.92992
25.931398
25.932634
25.933592
25.934299
25.934794
25.935111
25.935273
25.935298
25.935201
25.934996
25.934697
25.934314
25.933858
25.933336
25.932754
25.932119
25.931433
25.9307
25.929924
25.929105
25.928245
25.927332
25.926335
25.925098
25.923329
25.920497
25.918794
25.910172
25.920888
25.926543
25.928897
25.93056
25.932033
25.933264
25.934223
25.934932
25.935431
25.935752
25.935915
25.935941
25.935843
25.935637
25.935336
25.93495
25.934489
25.933963
25.933377
25.932738
25.932048
25.931312
25.930533
25.929713
25.928852
25.927941
25.926953
25.925735
25.924014
25.921229
25.919616
25.910864
25.921649
25.927245
25.929603
25.931276
25.932745
25.933972
25.93493
25.935641
25.936143
25.936466
25.936632
25.936657
25.936559
25.936351
25.936047
25.935657
25.935193
25.934663
25.934072
25.933428
25.932735
25.931995
25.931214
25.930392
25.929535
25.928637
25.927692
25.92659
25.925153
25.922871
25.922008
25.911624
25.922478
25.928015
25.930382
25.932067
25.933534
25.934757
25.935714
25.936426
25.93693
25.937254
25.937419
25.937444
25.937344
25.937134
25.936827
25.936435
25.935967
25.935432
25.934838
25.934189
25.933491
25.932749
25.931969
25.931161
25.930349
25.92959
25.929049
25.929076
25.930456
25.933807
25.942102
25.912455
25.923373
25.928851
25.93123
25.932931
25.934397
25.935617
25.936572
25.937284
25.937787
25.93811
25.938275
25.938298
25.938196
25.937983
25.937674
25.937278
25.936807
25.936268
25.93567
25.935018
25.934322
25.933593
25.932863
25.932213
25.931877
25.932527
25.936065
25.947514
25.97792
26.043655
26.170036
25.913355
25.924332
25.929749
25.932145
25.933863
25.93533
25.936546
25.937499
25.938208
25.938709
25.93903
25.939191
25.939212
25.939107
25.938892
25.93858
25.938182
25.937708
25.937167
25.936571
25.935933
25.935289
25.934731
25.934525
25.935456
25.939823
25.954282
25.997495
26.118532
26.421164
27.057338
28.213305
25.914323
25.925348
25.930704
25.933119
25.934857
25.936326
25.937539
25.938488
25.939193
25.939689
25.940006
25.940163
25.940179
25.940071
25.939853
25.939539
25.93914
25.938668
25.938143
25.937599
25.937133
25.937028
25.938128
25.942944
25.958907
26.007525
26.149023
26.535507
27.480611
29.394078
32.494228
36.699363
25.915355
25.926415
25.931709
25.934146
25.935906
25.937377
25.938588
25.939532
25.940231
25.94072
25.94103
25.941181
25.941192
25.94108
25.940861
25.940548
25.940162
25.93974
25.939375
25.939347
25.9405
25.945402
25.961789
26.012457
26.162638
26.581808
27.637543
29.886246
33.818674
39.496187
46.475083
54.061566
25.916447
25.927527
25.932757
25.935218
25.937001
25.938476
25.939683
25.940622
25.941313
25.941794
25.942095
25.942238
25.942244
25.942131
25.94192
25.941647
25.941398
25.941429
25.942527
25.947135
25.962774
26.012085
26.161491
26.587295
27.685684
30.083033
34.378556
40.795655
49.132911
58.914633
69.488721
79.978515
25.917594
25.928676
25.933841
25.936328
25.938134
25.939613
25.940818
25.94175
25.942432
25.942902
25.943193
25.94333
25.943337
25.943249
25.94314
25.943227
25.944186
25.948172
25.961976
26.006596
26.145151
26.55171
27.635096
30.081544
34.596182
41.501203
50.658196
61.717875
74.306446
87.918455
101.81541
114.91581
25.918793
25.929857
25.934956
25.937469
25.939298
25.940782
25.941984
25.942909
25.94358
25.94404
25.944324
25.94447
25.94454
25.944701
25.945485
25.948635
25.959808
25.997054
26.116177
26.47862
27.485767
29.871609
34.470589
41.746971
51.631235
63.781563
77.829205
93.40101
110.10577
127.35723
144.29699
159.68631
25.920041
25.931064
25.936096
25.938637
25.940487
25.941976
25.943175
25.944093
25.944756
25.945212
25.945523
25.945812
25.946455
25.948719
25.95689
25.985215
26.079267
26.378033
27.251191
29.453183
33.962724
41.451785
51.977438
65.217563
80.765821
98.203832
117.12495
137.0949
157.72457
178.40009
198.18763
215.78661
25.921336
25.932298
25.937261
25.939828
25.941699
25.943192
25.944389
25.945303
25.945972
25.94649
25.947101
25.948619
25.953943
25.973142
26.040138
26.26485
26.960521
28.855447
33.060286
40.52666
51.533183
65.822946
82.95471
102.45627
123.81966
146.52752
170.20168
194.40868
218.92988
243.22078
266.08404
286.78645
25.922682
25.933559
25.938451
25.941045
25.942934
25.94443
25.94563
25.946565
25.947354
25.948449
25.951521
25.962806
26.004861
26.154477
26.654284
28.143356
31.802884
38.916655
50.124885
65.328986
84.078745
105.84453
129.99046
155.92184
183.07593
210.94889
239.52409
268.27464
297.55722
327.43227
355.93927
378.87328
25.924077
25.934848
25.939669
25.942287
25.944193
25.945698
25.946936
25.948076
25.949876
25.955526
25.977653
26.063499
26.379031
27.415971
30.307055
36.646754
47.607581
63.427509
83.724796
107.91569
135.21938
164.92794
196.22948
228.64882
261.86337
295.31118
330.62325
366.91804
401.7995
432.98737
460.20045
479.84697
25.925501
25.93614
25.940886
25.943527
25.945456
25.947018
25.948564
25.951307
25.96084
26.000912
26.164547
26.779129
28.768413
33.876007
43.935428
59.812887
81.377386
108.04289
138.89228
173.01721
209.307
247.26185
286.14477
326.05039
368.13262
411.29286
450.4465
486.66336
518.7831
545.17841
566.03798
579.88438
25.926956
25.937472
25.942161
25.944834
25.946841
25.948807
25.952629
25.96726
26.033777
26.322276
27.435735
30.943459
39.256907
54.24526
76.40797
105.31023
139.97262
179.2095
221.55831
266.26417
312.18045
360.23273
410.84349
460.65357
505.57349
547.15326
581.83603
611.18995
636.02074
656.16894
671.01297
678.90506
25.928393
25.938815
25.943487
25.94626
25.948737
25.953536
25.973508
26.072276
26.533064
28.363398
33.98615
46.469453
67.619587
97.595892
135.59886
180.15475
229.45744
282.17502
336.80729
394.61135
455.67473
513.37758
565.68982
612.22019
650.62053
683.03163
709.95814
732.06886
749.92672
763.56235
772.31556
774.09058
25.92973
25.940088
25.944833
25.948094
25.953511
25.976496
26.100333
26.728379
29.339371
37.330756
54.469308
82.605387
121.70492
170.36001
226.53518
287.91373
352.70483
421.34046
494.52436
562.95875
625.13956
678.30212
722.06309
758.42653
788.08118
812.01685
831.01049
845.73788
856.73135
864.03498
866.99252
862.90503
25.930982
25.941363
25.946555
25.952438
25.974774
26.103485
26.821078
30.036419
40.199918
62.03963
97.767465
147.21298
208.34179
277.99304
353.84804
434.07645
521.02618
604.23526
679.4797
742.68292
794.35218
836.48483
870.22343
896.85685
917.42503
932.89023
944.08535
951.706
956.26916
957.77801
955.37392
946.04311
25.932166
25.942878
25.950247
25.969532
26.080882
26.760503
30.170569
41.822884
67.91284
111.53733
172.51639
248.01762
333.93053
426.58419
528.11124
631.12254
723.54485
801.94272
865.26803
916.08327
956.08443
986.95974
1010.1551
1026.9869
1038.5904
1045.9471
1049.8879
1051.0832
1049.9983
1046.542
1039.5414
1025.5954
25.933336
25.945626
25.962831
26.045428
26.581057
29.649837
41.60388
70.769664
121.97782
195.43303
287.37397
392.5535
507.10618
633.29778
748.83849
850.0664
930.67291
994.72018
1044.4152
1082.0371
1109.6174
1128.9813
1141.7049
1149.1412
1152.4275
1152.5068
1150.1442
1145.9256
1140.2142
1132.7716
1122.047
1104.0191
25.934723
25.953494
26.011925
26.36889
28.670563
39.393186
69.506086
126.91471
213.13688
323.57911
451.32866
593.43916
741.77175
875.22964
982.45351
1067.1851
1132.1903
1180.6994
1215.596
1239.476
1254.5865
1262.8387
1265.8224
1264.8393
1260.9344
1254.9302
1247.4589
1238.9711
1229.6932
1219.2073
1205.5373
1183.7595
25.937217
25.980441
26.198702
27.634601
35.743254
63.705402
124.29048
222.22276
352.74177
506.69041
681.81571
854.76202
1005.1744
1122.8197
1212.6553
1279.1767
1326.4759
1358.3505
1378.1064
1388.5386
1391.9501
1390.1998
1384.7543
1376.7478
1367.0392
1356.2659
1344.8877
1333.2018
1321.2931
1308.5553
1292.5368
1267.0892
25.94392
26.072637
26.86107
31.883394
54.254837
112.91289
219.07184
369.8438
553.51186
766.92561
970.78275
1140.8171
1271.7136
1368.6795
1437.4671
1483.6677
1512.251
1527.455
1532.7592
1530.9387
1524.1483
1514.0205
1501.764
1488.2551
1474.1168
1459.7817
1445.5385
1431.5423
1417.7522
1403.3757
1385.4194
1356.1231
25.964786
26.370728
29.019091
43.673526
93.650247
200.84156
369.00887
584.77693
841.48183
1084.9354
1281.8141
1430.3262
1536.9406
1609.2311
1654.6286
1679.7019
1689.9041
1689.583
1682.0804
1669.8831
1654.7898
1638.0709
1620.6039
1602.9815
1585.5943
1568.6896
1552.4098
1536.7933
1521.6935
1506.1361
1486.4934
1452.9157
26.029371
27.267521
35.102724
70.564076
167.41137
344.58112
591.69253
895.76111
1190.3753
1425.2127
1598.7493
1719.2177
1796.9985
1842.2201
1863.6446
1868.3616
1861.833
1848.0952
1830.0175
1809.5737
1788.0853
1766.4165
1745.1164
1724.5207
1704.8224
1686.1177
1668.4341
1651.7187
1635.7376
1619.3359
1598.1285
1559.5802
26.219082
29.760859
49.994721
124.10687
293.71511
564.58792
916.89627
1277.1833
1566.0368
1775.889
1916.9956
2003.6396
2049.8863
2067.6766
2066.3749
2052.9283
2032.2475
2007.6598
1981.3357
1954.6444
1928.4223
1903.1597
1879.1246
1856.443
1835.1513
1815.2296
1796.6187
1779.1955
1762.6529
1745.654
1722.8955
1678.4159
26.742323
36.059453
81.891842
221.4763
495.58643
889.93644
1330.695
1695.6273
1958.7672
2131.1921
2232.2833
2281.7566
2296.2136
2288.3069
2267.0448
2238.4955
2206.5573
2173.6319
2141.1401
2109.8787
2080.2602
2052.4668
2026.5423
2002.4502
1980.1077
1959.4075
1940.2277
1922.3908
1905.5257
1888.1113
1863.7219
1812.0504
28.095397
50.40004
144.00104
386.4376
801.15503
1330.8245
1799.0472
2140.5758
2361.2947
2486.0917
2542.7259
2554.7103
2539.5848
2509.3559
2471.7069
2431.2935
2390.8033
2351.7058
2314.7485
2280.2466
2248.271
2218.762
2191.5919
2166.6006
2143.6165
2122.4684
2102.9903
2084.9626
2067.9556
2050.2578
2024.0754
1963.61
31.379622
80.35447
256.87395
649.73571
1258.5693
1852.177
2307.1801
2603.3744
2767.5814
2838.4339
2849.9181
2827.0543
2786.3843
2737.9822
2687.5764
2638.2326
2591.4717
2547.9482
2507.8634
2471.1515
2437.6171
2407.0155
2379.0894
2353.5871
2330.2715
2308.9261
2289.3575
2271.3111
2254.3009
2236.3947
2208.2017
2136.9426
38.893471
138.96391
449.89991
1052.1429
1815.1799
2430.96
2846.0066
3076.8817
3174.9562
3190.1535
3159.4284
3106.5013
3045.1199
2982.6548
2922.7192
2866.8888
2815.685
2769.1024
2726.9282
2688.8022
2654.3239
2623.1083
2594.8022
2569.0867
2545.6777
2524.3284
2504.8333
2486.9059
2470.003
2451.9164
2421.447
2336.9201
55.172739
247.40808
762.75006
1642.2972
2465.6743
3063.3144
3407.8391
3557.6374
3585.5109
3547.9147
3480.5825
3403.2957
3325.9334
3253.0261
3186.2387
3125.8811
3071.6706
3023.0896
2979.6338
2940.7152
2905.7736
2874.3187
2845.9272
2820.2328
2796.9184
2775.7201
2756.4357
2738.7446
2722.0433
2703.799
2670.7128
2569.8729
88.557343
437.57217
1252.2862
2373.4326
3208.7007
3740.6954
3987.9144
4047.5247
4007.0515
3923.0496
3825.9307
3729.8873
3640.7007
3560.3633
3488.8866
3425.5571
3369.468
3319.7167
3275.6217
3236.4101
3201.3936
3170.004
3141.7686
3116.2888
3093.226
3072.3115
3053.3642
3036.0196
3019.6091
3001.2333
2965.1185
2844.2337
153.81821
755.99436
1964.3058
3220.2744
4030.286
4456.0846
4587.236
4555.3962
4453.4267
4331.2375
4211.1638
4101.3434
4003.8006
3918.4956
3844.0781
3779.0249
3721.9594
3671.7002
3627.5023
3588.4233
3553.6668
3522.6084
3494.7431
3469.6524
3446.9862
3426.4826
3408.0053
3391.1247
3375.1016
3356.6292
3317.007
3171.5242
275.92596
1269.615
2893.9879
4196.2184
4926.0144
5209.5305
5215.4125
5098.2189
4944.656
4792.8204
4656.0066
4536.6469
4433.5993
4345.3709
4269.4663
4203.7289
4146.4428
4096.2356
4052.4256
4013.8792
3979.7035
3949.2365
3921.9557
3897.4341
3875.3175
3855.366
3837.52
3821.2461
3805.7293
3787.2133
3743.5411
3567.9338
495.49758
2040.1067
4056.4026
5315.654
5897.8143
6011.2854
5893.0877
5702.0625
5507.9163
5334.4565
5186.3664
5061.0678
4954.9007
4865.5396
4789.4394
4723.9532
4667.1386
4617.5084
4574.602
4537.0197
4503.7778
4474.1965
4447.7502
4424.0133
4402.6353
4383.4172
4366.4221
4350.9463
4336.0976
4317.625
4269.3004
4056.6567
875.991
3127.827
5476.5458
6595.899
6957.5961
6886.2615
6654.6381
6404.3634
6180.5429
5992.7601
5838.2833
5710.2318
5603.0619
5514.3121
5439.3025
5375.0226
5319.4096
5270.93
5229.5625
5193.4809
5161.6211
5133.3091
5108.0311
5085.3739
5064.9988
5046.6858
5030.4015
5015.5818
5001.2739
4982.7382
4929.0737
4669.1787
1510.2028
4624.0513
7182.6243
8061.0377
8134.6935
7880.2347
7552.9406
7259.4255
7016.4057
6821.143
6664.993
6537.2872
6431.224
6345.0668
6272.6381
6210.7089
6157.2064
6110.619
6070.551
6035.5879
6004.7556
5977.3945
5953.0007
5931.1704
5911.5738
5893.9776
5878.2825
5864.0079
5850.1505
5831.5203
5772.0562
5452.9608
2537.5437
6641.3767
9215.5221
9742.941
9490.0191
9070.196
8669.7834
8350.1816
8098.4402
7902.7558
7750.1333
7626.2721
7523.8037
7439.7572
7369.131
7308.825
7256.78
7211.5051
7172.3619
7138.18
7108.0654
7081.3764
7057.6184
7036.3955
7017.3848
7000.3444
6985.1292
6971.3105
6957.8569
6939.1902
6873.929
6482.2086
4171.0412
9318.7676
11639.404
11701.483
11138.463
10586.276
10138.778
9812.6999
9563.9628
9372.0462
9222.0155
9100.7508
9000.6697
8918.0278
8848.5117
8789.1717
8737.9852
8693.4856
8654.8763
8621.1331
8591.4265
8565.1335
8541.7682
8520.9415
8502.3355
8485.7024
8470.8648
8457.4303
8444.3811
8425.866
8355.6519
7877.8318
6736.174
12850.273
14584.705
14100.828
13285.493
12657.012
12195.662
11865.548
11618.957
11429.811
11281.57
11161.818
11063.006
10980.95
10911.765
10852.656
10801.657
10757.33
10718.776
10685.056
10655.388
10629.166
10605.911
10585.241
10566.838
10550.452
10535.881
10522.766
10510.16
10492.228
10419.379
9845.8071
10748.784
17548.158
18345.475
17316.899
16346.178
15666.763
15196.223
14865.209
14620.704
14433.315
14285.666
14165.993
14066.993
13984.302
13914.311
13854.387
13802.625
13757.621
13718.407
13684.087
13653.909
13627.279
13603.725
13582.862
13564.377
13548.009
13533.543
13520.66
13508.574
13492.098
13421.634
12755.511
17085.579
24003.146
23602.52
22096.39
21001.028
20295.798
19825.157
19496.247
19253.024
19065.252
18915.751
18793.609
18691.975
18606.485
18533.74
18471.242
18417.144
18370.071
18328.997
18293.03
18261.428
18233.601
18209.074
18187.457
18168.426
18151.711
18137.087
18124.297
18112.885
18099.44
18041.368
17319.169
27435.531
33525.973
31716.511
29842.973
28706.764
28011.634
27551.039
27224.742
26979.08
26785.907
26629.434
26499.942
26391.209
26298.957
26219.94
26151.752
26092.589
26041.073
25996.088
25956.701
25922.152
25891.839
25865.265
25842.018
25821.751
25804.167
25789.034
25776.194
25765.821
25758.103
25730.886
25065.685
45827.272
49208.608
46152.739
44225.989
43183.553
42539.023
42093.014
41762.703
41504.56
41295.641
41122.604
40977.217
40853.947
40748.498
40657.656
40579.036
40510.815
40451.533
40399.889
40354.836
40315.553
40281.387
40251.787
40226.285
40204.475
40186.01
40170.638
40158.367
40150.42
40153.423
40187.451
39840.359
85445.578
83203.186
79405.789
77824.321
77018.284
76489.047
76093.574
75779.911
75524.78
75313.914
75137.537
74989.314
74864.534
74758.857
74669.103
74592.935
74528.514
74474.284
74428.729
74390.685
74359.274
74333.797
74313.642
74298.276
74287.234
74280.122
74276.642
74277.062
74283.415
74310.703
74428.534
74782.576
216254.24
208210.38
205703.81
205054.41
204761.82
204565.26
204423.95
204326.15
204263.33
204227.75
204213.45
204216.55
204234.11
204263.35
204302.24
204349.26
204403.25
204463.22
204528.21
204597.49
204670.5
204746.81
204826.01
204907.79
204991.85
205078.02
205165.99
205256.59
205349.14
205463.16
205614.48
206399.42
1195992
1197132.7
1197461.4
1197619.7
1197883.1
1198287.7
1198799.8
1199389.2
1200026
1200688
1201363.3
1202045.8
1202732.3
1203421.2
1204111.2
1204801.1
1205490.2
1206178
1206864.2
1207548.9
1208232
1208913.3
1209593
1210271.1
1210947.7
1211623.3
1212296.8
1212973.1
1213636.8
1214361.9
1214885.8
1218277.6
1112600.6
1113413.3
1113965.3
1114026.7
1113824.4
1113594.9
1113413.2
1113277.3
1113176.1
1113098.9
1113039.1
1112992.1
1112955
1112925.6
1112902.3
1112884.2
1112871
1112862.1
1112857.4
1112856.7
1112860.1
1112867.7
1112880
1112897.7
1112921.7
1112953.6
1112995.5
1113051.1
1113126.3
1113247.6
1113432.6
1113560.6
178329.9
176387.04
176502.41
176237.66
176145.08
176114.93
176099.07
176083.25
176065.11
176044.84
176023.68
176002.85
175983.08
175964.77
175948.07
175932.96
175919.35
175907.2
175896.43
175887.01
175878.92
175872.19
175866.87
175863.07
175861.01
175861.01
175863.65
175870.07
175882.69
175908.07
175957.67
175655.22
58307.226
56357.204
54628.602
53920.809
53721.415
53693.764
53696.279
53690.412
53670.172
53638.191
53599.285
53557.417
53515.271
53474.454
53435.817
53399.62
53365.856
53334.513
53305.538
53278.874
53254.47
53232.285
53212.309
53194.579
53179.258
53166.714
53157.673
53153.668
53159.004
53183.335
53265.079
53211.53
27738.392
28212.227
26336.899
25287.611
24867.613
24710.77
24639.981
24589.542
24537.453
24479.66
24417.868
24354.721
24292.444
24232.524
24175.792
24122.487
24072.567
24025.972
23982.62
23942.43
23905.324
23871.241
23840.159
23812.111
23787.295
23766.177
23749.688
23739.781
23741.826
23768.004
23862.425
23717.989
15202.068
17654.675
16739.407
15779.486
15167.375
14807.845
14601.234
14470.813
14374.54
14294.453
14222.575
14156.063
14093.956
14035.949
13981.912
13931.647
13884.9
13841.451
13801.11
13763.723
13729.171
13697.365
13668.263
13641.882
13618.359
13598.042
13581.621
13570.518
13568.373
13581.764
13615.695
13142.104
8626.9221
11911.927
12032.055
11352.894
10656.659
10169.767
9862.3879
9666.254
9533.3458
9434.8502
9355.843
9288.9616
9230.303
9177.7649
9130.1639
9086.7666
9047.035
9010.5378
8976.939
8945.9823
8917.4774
8891.2835
8867.313
8845.5318
8825.9791
8808.8112
8794.3717
8783.2987
8777.1398
8775.7272
8748.7984
8140.3987
4833.7786
8026.7153
8923.9685
8696.4544
8100.0508
7581.0025
7219.827
6978.8435
6816.4458
6700.2312
6611.8139
6541.098
6482.0455
6431.1563
6386.3691
6346.4691
6310.6114
6278.1433
6248.5751
6221.5432
6196.7797
6174.0859
6153.3254
6134.4176
6117.3172
6102.0372
6088.6725
6077.3236
6068.0824
6056.8292
5997.8185
5424.2659
2606.5116
5190.6917
6449.751
6716.8104
6390.651
5952.6921
5592.1082
5331.9153
5151.7697
5022.074
4924.7332
4848.9314
4787.3855
4735.7161
4691.2603
4652.4718
4618.227
4587.6465
4560.0918
4535.0983
4512.3251
4491.5176
4472.4975
4455.1494
4439.359
4425.0369
4412.1101
4400.3651
4389.0845
4372.4259
4303.0537
3833.2711
1330.4588
3156.0301
4401.3313
5038.0826
5084.9009
4821.8366
4508.6022
4253.5693
4069.8143
3932.9364
3829.0661
3748.7457
3684.1493
3630.5837
3585.1051
3546.0617
3512.114
3482.1466
3455.383
3431.2719
3409.4098
3389.4933
3371.3134
3354.7387
3339.592
3325.7076
3312.9064
3300.8069
3288.3823
3269.4061
3201.9077
2844.008
632.77785
1780.8839
2784.6244
3553.8557
3923.6963
3905.2877
3712.1487
3502.9113
3332.1254
3195.2592
3088.2694
3005.1959
2937.9085
2882.0888
2834.884
2794.8606
2760.4969
2730.4077
2703.7023
2679.765
2658.1449
2638.5006
2620.6092
2604.3502
2589.4727
2575.7519
2562.9456
2550.5892
2537.625
2518.1773
2458.0732
2195.4499
284.36981
924.68371
1612.2913
2298.501
2837.4967
3048.5754
3018.4578
2907.048
2786.8026
2671.6713
2571.4972
2488.1785
2418.8158
2360.5715
2311.1001
2269.6778
2234.504
2203.8125
2176.6524
2152.3768
2130.5075
2110.6771
2092.6757
2076.4335
2061.5838
2047.8522
2034.9638
2022.431
2009.2603
1990.3177
1939.2488
1749.8152
125.34591
439.63214
841.02091
1329.536
1863.6529
2227.8663
2356.1777
2371.3468
2329.7135
2258.2977
2180.3323
2107.2596
2042.4587
1986.0977
1937.2614
1895.2908
1859.0347
1827.2698
1799.1364
1774.0031
1751.3861
1730.904
1712.4048
1695.9407
1680.9075
1666.995
1653.9193
1641.2157
1627.9792
1609.9559
1567.5161
1431.3017
59.937123
194.81293
395.86504
666.29665
1061.6843
1469.4717
1722.7485
1847.9481
1896.9814
1889.0438
1850.5927
1800.4739
1748.7426
1699.8495
1655.3462
1615.6569
1580.4825
1549.2167
1521.2851
1496.1979
1473.5455
1452.9862
1434.3031
1417.3996
1401.9237
1387.5977
1374.1508
1361.1658
1347.8514
1330.8007
1295.6721
1196.6531
36.123005
86.628787
173.87408
303.25365
508.35629
817.72808
1124.1989
1328.5648
1458.547
1522.0722
1537.4491
1524.1299
1496.3111
1462.6636
1427.892
1394.3705
1363.1074
1334.3761
1308.1277
1284.1842
1262.3255
1242.3271
1224.0049
1207.2292
1191.7757
1177.4233
1163.9341
1150.9458
1137.7959
1121.7234
1092.3524
1019.7492
28.568441
44.849544
77.121296
129.54002
221.03196
377.01558
603.06971
837.71647
1017.9084
1141.5547
1213.6039
1246.4257
1253.1537
1244.133
1226.4897
1204.7425
1181.5631
1158.4323
1136.1204
1114.9897
1095.1753
1076.6871
1059.4795
1043.4893
1028.5979
1014.6593
1001.4912
988.79771
976.05968
961.00162
936.16777
882.15517
26.507751
30.984935
41.003942
58.639506
91.756802
157.01673
269.65424
426.60442
607.11317
760.05342
875.24199
951.97078
997.5845
1020.3101
1027.3445
1024.1795
1014.7381
1001.6911
986.78572
971.12679
955.39114
939.97645
925.10435
910.88808
897.35602
884.47483
872.15001
860.17358
848.16419
834.25661
813.07566
772.06994
26.029284
27.073839
29.672239
34.533273
44.06776
64.978683
108.84912
184.63768
289.62566
420.08937
543.58031
647.64044
725.38465
779.18934
814.03781
834.3775
844.09961
846.30244
843.34077
836.95473
828.39764
818.54766
808.00478
797.16894
786.29273
775.5172
764.88556
754.31294
743.49535
731.10416
713.0623
681.19157
25.935149
26.142298
26.703916
27.80698
29.993564
34.981561
47.169795
73.906773
120.89365
187.79074
269.78619
365.82317
452.65689
525.92926
584.48048
627.43299
657.90909
678.42399
691.13336
697.8776
700.15864
699.15843
695.79207
690.75524
684.56306
677.58017
670.03745
662.01531
653.34315
643.08459
628.08751
602.84254
25.919053
25.95554
26.056373
26.263525
26.675399
27.591049
29.93666
36.09977
50.260823
76.469925
115.90802
166.07446
224.62527
290.444
355.10155
410.09412
457.35114
494.67865
523.10098
544.28592
559.58089
570.04558
576.61219
580.07784
581.09944
580.19724
577.76199
574.03503
569.00477
562.03125
550.55799
530.64279
25.916045
25.923517
25.938398
25.970245
26.034889
26.174222
26.515132
27.446652
29.994234
36.181148
48.613823
68.991786
97.452436
132.28682
171.78595
215.2791
263.15833
306.52271
344.01356
376.81027
404.34769
426.23776
443.40163
456.63812
466.56157
473.64542
478.29
480.78722
481.21273
479.14135
472.29622
457.59095
25.914761
25.918041
25.919702
25.923341
25.931565
25.949363
25.990919
26.099181
26.399862
27.232383
29.329759
33.919083
42.445509
55.862263
74.264097
96.995481
122.6406
151.04264
181.46948
214.21085
245.87628
273.67739
298.1138
319.91148
338.52686
353.71571
365.91414
375.42698
382.35387
386.39087
385.35227
376.56595
25.913548
25.916205
25.916173
25.916084
25.916714
25.918462
25.92261
25.933109
25.961482
26.040054
26.251204
26.789967
28.030665
30.591097
35.233132
42.647472
53.134923
66.623202
82.649546
100.40963
119.65187
140.19011
161.72713
184.57976
206.4627
225.83833
242.9259
257.93047
270.91786
281.09231
286.18369
283.89627
25.912166
25.914599
25.914368
25.913875
25.913674
25.913664
25.91384
25.914509
25.916573
25.922513
25.938844
25.981731
26.087572
26.332949
26.865682
27.930524
29.875318
33.101583
37.974511
44.697205
53.291044
63.576175
75.19813
87.670541
100.95285
114.90537
129.17605
143.64086
158.15662
171.03468
180.10375
183.38675
25.91058
25.912795
25.912521
25.911994
25.911733
25.911586
25.91143
25.911272
25.911192
25.911359
25.912201
25.914789
25.921631
25.938256
25.976194
26.057907
26.224887
26.550426
27.144993
28.169235
29.817315
32.290939
35.759638
40.312317
45.960179
52.611544
60.043819
67.925148
75.772957
83.051055
89.515295
93.829449
25.908883
25.910843
25.910541
25.910016
25.909761
25.909623
25.909466
25.90927
25.909059
25.908856
25.90869
25.908623
25.908798
25.909536
25.911518
25.916132
25.926055
25.946274
25.985514
26.058516
26.189582
26.416628
26.791142
27.384496
28.279628
29.559509
31.286505
33.470056
36.010972
38.617082
41.327192
43.758344
25.90729
25.908973
25.908659
25.908138
25.90788
25.907748
25.907603
25.907424
25.907227
25.907025
25.906825
25.906631
25.906452
25.906305
25.906223
25.906274
25.906594
25.907443
25.909293
25.912965
25.919845
25.932194
25.953487
25.988889
26.045678
26.133626
26.263617
26.441146
26.656756
26.868
27.134595
27.446134
25.905994
25.907419
25.907122
25.906615
25.906344
25.906199
25.906054
25.905887
25.90571
25.905532
25.905353
25.905173
25.904993
25.904814
25.90464
25.904473
25.90432
25.904192
25.90411
25.904109
25.904251
25.904639
25.905434
25.906874
25.909287
25.913074
25.918604
25.92583
25.933391
25.939004
25.947131
25.957393
25.904986
25.906211
25.905964
25.905489
25.905208
25.905047
25.904898
25.904736
25.904571
25.904408
25.904246
25.904082
25.903915
25.903747
25.903579
25.903411
25.903247
25.903086
25.902929
25.902777
25.902631
25.902496
25.902378
25.90229
25.902249
25.902284
25.902435
25.90276