/*--------------------------------*- C++ -*----------------------------------*\
| =========                 |                                                 |
| \\      /  F ield         | OpenFOAM: The Open Source CFD Toolbox           |
|  \\    /   O peration     | Version:  2212                                  |
|   \\  /    A nd           | Website:  www.openfoam.com                      |
|    \\/     M anipulation  |                                                 |
\*---------------------------------------------------------------------------*/
FoamFile
{
    version     2.0;
    format      ascii;
    arch        "LSB;label=32;scalar=64";
    class       volScalarField;
    location    "5";
    object      p;
}
// * * * * * * * * * * * * * * * * * * * * * * * * * * * * * * * * * * * * * //

dimensions      [1 -1 -2 0 0 0 0];

internalField   nonuniform List<scalar> 
20480
(
103884.34
103816.65
103668.47
103521.5
103402.83
103301.55
103204.97
103109.31
103015.06
102922.85
102832.71
102744.38
102657.61
102572.22
102488.05
102405.01
102323
102241.93
102161.75
102082.37
102003.73
101925.78
101848.46
101771.71
101695.48
101619.75
101544.52
101469.88
101396.37
101325.48
101262.78
101219.14
103884.49
103816.71
103668.44
103521.47
103402.82
103301.55
103204.96
103109.3
103015.05
102922.85
102832.71
102744.38
102657.61
102572.21
102488.05
102405.01
102323
102241.93
102161.75
102082.37
102003.73
101925.78
101848.46
101771.71
101695.48
101619.75
101544.51
101469.88
101396.36
101325.46
101262.74
101219.07
103884.8
103816.82
103668.37
103521.42
103402.81
103301.54
103204.95
103109.29
103015.05
102922.84
102832.7
102744.37
102657.6
102572.21
102488.05
102405
102322.99
102241.93
102161.74
102082.36
102003.73
101925.78
101848.46
101771.7
101695.48
101619.75
101544.51
101469.87
101396.35
101325.43
101262.67
101218.93
103885.25
103816.97
103668.27
103521.34
103402.79
103301.53
103204.94
103109.28
103015.04
102922.83
102832.69
102744.37
102657.6
102572.2
102488.04
102405
102322.99
102241.92
102161.74
102082.36
102003.73
101925.78
101848.45
101771.7
101695.48
101619.74
101544.51
101469.87
101396.34
101325.38
101262.57
101218.72
103885.85
103817.18
103668.14
103521.24
103402.77
103301.52
103204.92
103109.26
103015.02
102922.82
102832.68
102744.35
102657.59
102572.19
102488.03
102404.99
102322.98
102241.92
102161.73
102082.35
102003.72
101925.77
101848.45
101771.7
101695.47
101619.74
101544.5
101469.86
101396.32
101325.32
101262.43
101218.44
103886.59
103817.44
103667.99
103521.12
103402.74
103301.51
103204.89
103109.24
103015
102922.81
102832.67
102744.34
102657.58
102572.18
102488.02
102404.98
102322.97
102241.91
102161.72
102082.35
102003.71
101925.76
101848.44
101771.69
101695.47
101619.73
101544.49
101469.85
101396.29
101325.24
101262.27
101218.1
103887.47
103817.75
103667.8
103520.97
103402.71
103301.49
103204.86
103109.21
103014.98
102922.79
102832.65
102744.33
102657.56
102572.17
102488.01
102404.97
102322.96
102241.9
102161.72
102082.34
102003.7
101925.76
101848.43
101771.68
101695.46
101619.72
101544.49
101469.83
101396.26
101325.15
101262.07
101217.69
103888.48
103818.09
103667.58
103520.8
103402.67
103301.46
103204.83
103109.18
103014.96
102922.77
102832.63
102744.31
102657.55
102572.15
102488
102404.96
102322.95
102241.89
102161.7
102082.33
102003.7
101925.75
101848.42
101771.67
101695.45
101619.72
101544.48
101469.81
101396.23
101325.05
101261.84
101217.22
103889.62
103818.49
103667.34
103520.61
103402.63
103301.44
103204.79
103109.15
103014.93
102922.75
102832.61
102744.29
102657.53
102572.14
102487.98
102404.94
102322.93
102241.88
102161.69
102082.32
102003.68
101925.74
101848.41
101771.66
101695.44
101619.71
101544.47
101469.8
101396.19
101324.93
101261.58
101216.69
103890.9
103818.92
103667.07
103520.4
103402.58
103301.41
103204.75
103109.11
103014.9
102922.72
102832.59
102744.27
102657.51
102572.12
102487.96
102404.93
102322.92
102241.86
102161.68
102082.3
102003.67
101925.72
101848.4
101771.65
101695.43
101619.7
101544.45
101469.78
101396.14
101324.81
101261.3
101216.09
103892.3
103819.38
103666.77
103520.18
103402.53
103301.38
103204.71
103109.07
103014.87
102922.69
102832.57
102744.25
102657.49
102572.1
102487.94
102404.91
102322.9
102241.85
102161.66
102082.29
102003.66
101925.71
101848.39
101771.64
101695.42
101619.68
101544.44
101469.75
101396.1
101324.66
101260.98
101215.43
103893.82
103819.88
103666.44
103519.94
103402.47
103301.35
103204.66
103109.02
103014.83
102922.66
102832.54
102744.22
102657.46
102572.08
102487.92
102404.89
102322.88
102241.83
102161.65
102082.27
102003.64
101925.7
101848.38
101771.63
101695.41
101619.67
101544.43
101469.73
101396.04
101324.51
101260.65
101214.71
103895.46
103820.41
103666.09
103519.68
103402.41
103301.31
103204.6
103108.97
103014.79
102922.63
102832.51
102744.19
102657.44
102572.05
102487.9
102404.87
102322.86
102241.81
102161.63
102082.26
102003.63
101925.68
101848.36
101771.62
101695.39
101619.66
101544.41
101469.71
101395.99
101324.35
101260.28
101213.92
103897.21
103820.97
103665.72
103519.41
103402.35
103301.27
103204.55
103108.92
103014.75
102922.59
102832.48
102744.16
102657.41
102572.03
102487.88
102404.84
102322.84
102241.79
102161.61
102082.24
102003.61
101925.67
101848.35
101771.6
101695.38
101619.64
101544.4
101469.68
101395.93
101324.17
101259.9
101213.07
103899.07
103821.54
103665.32
103519.12
103402.28
103301.22
103204.48
103108.87
103014.71
102922.56
102832.44
102744.13
102657.38
102572
102487.85
102404.82
102322.82
102241.77
102161.59
102082.22
102003.59
101925.65
101848.33
101771.59
101695.37
101619.63
101544.38
101469.65
101395.87
101323.99
101259.48
101212.16
103901.03
103822.14
103664.89
103518.82
103402.21
103301.18
103204.42
103108.81
103014.66
102922.52
102832.41
102744.1
102657.35
102571.97
102487.82
102404.8
102322.8
102241.75
102161.57
102082.2
102003.58
101925.63
101848.32
101771.57
101695.35
101619.61
101544.36
101469.62
101395.81
101323.8
101259.05
101211.19
103903.09
103822.75
103664.44
103518.52
103402.14
103301.13
103204.35
103108.75
103014.61
102922.48
102832.37
102744.06
102657.32
102571.94
102487.79
102404.77
102322.77
102241.72
102161.55
102082.18
102003.56
101925.61
101848.3
101771.55
101695.33
101619.6
101544.34
101469.59
101395.75
101323.59
101258.6
101210.15
103905.26
103823.37
103663.96
103518.2
103402.06
103301.07
103204.28
103108.68
103014.56
102922.43
102832.33
102744.03
102657.28
102571.91
102487.76
102404.74
102322.75
102241.7
102161.53
102082.16
102003.54
101925.59
101848.28
101771.54
101695.32
101619.58
101544.32
101469.56
101395.68
101323.38
101258.12
101209.05
103907.52
103824.01
103663.46
103517.87
103401.98
103301.02
103204.21
103108.62
103014.51
102922.38
102832.29
102743.99
102657.25
102571.87
102487.73
102404.71
102322.72
102241.67
102161.5
102082.14
102003.51
101925.57
101848.26
101771.52
101695.3
101619.56
101544.3
101469.53
101395.61
101323.16
101257.62
101207.88
103909.9
103824.66
103662.94
103517.53
103401.9
103300.96
103204.13
103108.55
103014.45
102922.34
102832.24
102743.95
102657.21
102571.84
102487.7
102404.68
102322.69
102241.65
102161.48
102082.11
102003.49
101925.55
101848.24
101771.5
101695.28
101619.55
101544.28
101469.49
101395.54
101322.93
101257.11
101206.65
103912.39
103825.31
103662.39
103517.19
103401.81
103300.89
103204.05
103108.48
103014.39
102922.29
102832.2
102743.9
102657.17
102571.8
102487.67
102404.65
102322.66
102241.62
102161.45
102082.09
102003.47
101925.53
101848.22
101771.48
101695.26
101619.53
101544.26
101469.46
101395.47
101322.7
101256.58
101205.35
103914.99
103825.97
103661.82
103516.84
103401.72
103300.82
103203.97
103108.4
103014.33
102922.23
102832.15
102743.86
102657.13
102571.77
102487.63
102404.62
102322.63
102241.59
102161.43
102082.06
102003.45
101925.51
101848.2
101771.46
101695.24
101619.51
101544.24
101469.42
101395.39
101322.45
101256.03
101204.02
103917.73
103826.64
103661.23
103516.48
103401.63
103300.75
103203.88
103108.32
103014.27
102922.18
102832.1
102743.81
102657.09
102571.73
102487.6
102404.58
102322.6
102241.56
102161.4
102082.04
102003.42
101925.49
101848.18
101771.44
101695.22
101619.48
101544.21
101469.38
101395.32
101322.22
101255.51
101202.7
103920.6
103827.31
103660.62
103516.12
103401.54
103300.68
103203.79
103108.25
103014.2
102922.12
102832.05
102743.77
102657.04
102571.69
102487.56
102404.55
102322.57
102241.53
102161.37
102082.01
102003.4
101925.46
101848.16
101771.42
101695.2
101619.46
101544.19
101469.36
101395.29
101322.07
101255.09
101201.48
103923.63
103827.98
103659.99
103515.76
103401.44
103300.6
103203.7
103108.17
103014.14
102922.07
102832
102743.72
102657
102571.65
102487.52
102404.51
102322.53
102241.5
102161.34
102081.99
102003.37
101925.44
101848.13
101771.39
101695.18
101619.46
101544.23
101469.44
101395.41
101322.09
101254.87
101200.47
103926.8
103828.65
103659.34
103515.4
103401.34
103300.52
103203.61
103108.08
103014.07
102922.01
102831.94
102743.67
102656.95
102571.61
102487.48
102404.48
102322.5
102241.47
102161.31
102081.96
102003.34
101925.41
101848.11
101771.39
101695.22
101619.55
101544.4
101469.7
101395.76
101322.41
101254.98
101199.8
103930.14
103829.31
103658.68
103515.03
103401.24
103300.44
103203.52
103108
103014
102921.95
102831.89
102743.62
102656.91
102571.56
102487.44
102404.44
102322.47
102241.44
102161.28
102081.92
102003.32
101925.4
101848.14
101771.48
101695.39
101619.85
101544.84
101470.3
101396.51
101323.15
101255.54
101199.52
103933.64
103829.96
103657.99
103514.66
103401.13
103300.35
103203.42
103107.91
103013.93
102921.88
102831.83
102743.57
102656.86
102571.52
102487.4
102404.4
102322.43
102241.4
102161.25
102081.91
102003.33
101925.48
101848.31
101771.78
101695.85
101620.5
101545.7
101471.35
101397.73
101324.37
101256.56
101199.62
103937.3
103830.59
103657.29
103514.29
103401.02
103300.26
103203.32
103107.83
103013.85
102921.82
102831.78
102743.52
102656.81
102571.47
102487.36
102404.36
102322.39
102241.37
102161.25
102081.97
102003.5
101925.78
101848.78
101772.46
101696.77
101621.65
101547.06
101472.9
101399.43
101326.06
101258.03
101200.14
103941.11
103831.19
103656.57
103513.93
103400.91
103300.17
103203.22
103107.74
103013.78
102921.76
102831.72
102743.46
102656.76
102571.42
102487.31
102404.32
102322.38
102241.42
102161.39
102082.25
102003.96
101926.48
101849.73
101773.68
101698.23
101623.33
101548.96
101474.98
101401.66
101328.31
101260.04
101201.19
103945.06
103831.75
103655.83
103513.56
103400.79
103300.07
103203.12
103107.65
103013.7
102921.69
102831.66
102743.4
102656.71
102571.37
102487.28
102404.34
102322.49
102241.67
102161.85
102082.97
102004.95
101927.77
101851.29
101775.49
101700.29
101625.62
101551.48
101477.71
101404.55
101331.19
101262.66
101202.77
103949.14
103832.28
103655.08
103513.2
103400.68
103299.97
103203.01
103107.55
103013.63
102921.62
102831.59
102743.34
102656.66
102571.37
102487.35
102404.55
102322.9
102242.37
102162.85
102084.3
102006.6
101929.71
101853.52
101777.99
101703.06
101628.64
101554.72
101481.14
101408.1
101334.67
101265.79
101204.75
103953.21
103832.74
103654.33
103512.85
103400.56
103299.87
103202.91
103107.46
103013.55
102921.55
102831.53
102743.31
102656.68
102571.51
102487.69
102405.17
102323.86
102243.69
102164.52
102086.31
102008.94
101932.36
101856.49
101781.25
101706.56
101632.35
101558.57
101485.07
101412.05
101338.46
101269.16
101206.89
103957.15
103833.13
103653.62
103512.52
103400.44
103299.77
103202.81
103107.38
103013.47
102921.48
102831.5
102743.36
102656.9
102571.99
102488.52
102406.38
102325.46
102245.66
102166.87
102089.01
102011.99
101935.72
101860.12
101785.08
101710.53
101636.41
101562.66
101489.14
101416.04
101342.24
101272.48
101208.98
103960.9
103833.46
103652.95
103512.21
103400.33
103299.68
103202.72
103107.29
103013.4
102921.47
102831.59
102743.66
102657.52
102573
102489.95
102408.23
102327.72
102248.32
102169.92
102092.41
102015.69
101939.64
101864.18
101789.21
101714.69
101640.53
101566.72
101493.1
101419.87
101345.81
101275.57
101210.88
103964.47
103833.72
103652.31
103511.93
103400.23
103299.58
103202.63
103107.22
103013.38
102921.58
102831.96
102744.4
102658.7
102574.63
102492.04
102410.77
102330.7
102251.7
102173.64
102096.38
102019.81
101943.84
101868.39
101793.38
101718.77
101644.5
101570.56
101496.8
101423.41
101349.09
101278.37
101212.56
103967.85
103833.94
103651.7
103511.67
103400.13
103299.5
103202.55
103107.19
103013.51
102921.99
102832.78
102745.71
102660.51
102576.94
102494.85
102414.05
102334.39
102255.69
102177.82
102100.65
102024.09
101948.07
101872.51
101797.38
101722.62
101648.2
101574.1
101500.18
101426.62
101352.04
101280.86
101213.98
103971.05
103834.11
103651.14
103511.42
103400.03
103299.41
103202.51
103107.31
103013.93
102922.86
102834.17
102747.65
102663.01
102580
102498.41
102417.99
102338.58
102260.02
102182.17
102104.94
102028.28
101952.1
101876.38
101801.07
101726.14
101651.54
101577.28
101503.19
101429.46
101354.65
101283.05
101215.16
103974.06
103834.24
103650.61
103511.19
103399.94
103299.36
103202.59
103107.7
103014.79
102924.29
102836.22
102750.33
102666.29
102583.8
102502.56
102422.35
102343.01
102264.4
102186.44
102109.05
102032.2
101955.83
101879.91
101804.41
101729.29
101654.52
101580.09
101505.85
101431.96
101356.93
101284.95
101216.12
103976.89
103834.35
103650.1
103510.97
103399.86
103299.4
103202.92
103108.5
103016.21
102926.39
102839.03
102753.8
102670.29
102588.13
102507.04
102426.84
102347.4
102268.62
102190.45
102112.85
102035.77
101959.19
101883.06
101807.36
101732.07
101657.13
101582.55
101508.16
101434.14
101358.92
101286.58
101216.87
103979.56
103834.43
103649.64
103510.78
103399.84
103299.63
103203.61
103109.83
103018.29
102929.28
102842.65
102757.96
102674.76
102592.71
102511.57
102431.21
102351.55
102272.53
102194.11
102116.26
102038.95
101962.15
101885.82
101809.94
101734.48
101659.39
101584.68
101510.16
101436.03
101360.64
101287.98
101217.45
103982.06
103834.48
103649.2
103510.62
103399.95
103300.16
103204.78
103111.82
103021.19
102932.99
102846.94
102762.56
102679.43
102597.27
102515.92
102435.3
102355.35
102276.05
102197.37
102119.27
102041.73
101964.72
101888.21
101812.17
101736.56
101661.34
101586.51
101511.89
101437.65
101362.12
101289.18
101217.87
103984.4
103834.53
103648.79
103510.54
103400.27
103301.09
103206.58
103114.63
103024.93
102937.38
102851.65
102767.31
102684.02
102601.6
102519.93
102438.99
102358.74
102279.15
102200.2
102121.87
102044.13
101966.93
101890.26
101814.08
101738.35
101663.02
101588.09
101513.38
101439.05
101363.4
101290.2
101218.16
103986.59
103834.55
103648.44
103510.58
103400.9
103302.59
103209.18
103118.32
103029.38
102942.2
102856.48
102771.94
102688.33
102605.55
102523.53
102442.25
102361.69
102281.82
102202.64
102124.1
102046.17
101968.82
101892.01
101815.71
101739.87
101664.45
101589.43
101514.65
101440.25
101364.5
101291.05
101218.33
103988.64
103834.58
103648.16
103510.83
103401.98
103304.84
103212.68
103122.76
103034.28
102947.13
102861.18
102776.26
102692.24
102609.06
102526.67
102445.06
102364.21
102284.1
102204.71
102125.99
102047.9
101970.42
101893.49
101817.09
101741.16
101665.66
101590.58
101515.73
101441.27
101365.43
101291.78
101218.4
103990.56
103834.61
103647.99
103511.38
103403.68
103307.97
103217.02
103127.73
103039.33
102951.91
102865.53
102780.14
102695.68
102612.09
102529.36
102447.45
102366.35
102286.02
102206.45
102127.57
102049.36
101971.76
101894.74
101818.25
101742.25
101666.69
101591.55
101516.65
101442.14
101366.23
101292.38
101218.37
103992.35
103834.65
103647.98
103512.37
103406.21
103312.02
103221.98
103132.9
103044.24
102956.34
102869.43
102783.54
102698.63
102614.67
102531.61
102449.44
102368.12
102287.62
102207.89
102128.89
102050.56
101972.87
101895.78
101819.22
101743.16
101667.54
101592.36
101517.42
101442.87
101366.89
101292.86
101218.26
103994.01
103834.73
103648.21
103513.97
103409.67
103316.83
103227.27
103137.99
103048.8
102960.29
102872.8
102786.41
102701.1
102616.8
102533.47
102451.08
102369.58
102288.93
102209.08
102129.97
102051.56
101973.79
101896.63
101820.01
101743.9
101668.24
101593.02
101518.05
101443.46
101367.43
101293.25
101218.06
103995.57
103834.87
103648.81
103516.39
103414.03
103322.15
103232.57
103142.73
103052.84
102963.68
102875.63
102788.79
102703.12
102618.53
102534.98
102452.4
102370.75
102289.98
102210.03
102130.83
102052.35
101974.52
101897.31
101820.65
101744.5
101668.8
101593.55
101518.55
101443.93
101367.85
101293.54
101217.78
103997.02
103835.12
103649.91
103519.76
103419.13
103327.65
103237.57
103146.95
103056.3
102966.49
102877.94
102790.71
102704.73
102619.91
102536.16
102453.44
102371.67
102290.8
102210.77
102131.5
102052.96
101975.09
101897.83
101821.13
101744.95
101669.22
101593.94
101518.91
101444.28
101368.16
101293.73
101217.42
103998.37
103835.53
103651.7
103524.06
103424.67
103332.98
103242.06
103150.54
103059.13
102968.74
102879.75
102792.19
102705.97
102620.95
102537.06
102454.22
102372.36
102291.41
102211.3
102131.99
102053.4
101975.48
101898.18
101821.45
101745.24
101669.5
101594.19
101519.15
101444.49
101368.35
101293.82
101216.98
103999.63
103836.21
103654.31
103529.12
103430.29
103337.84
103245.88
103153.45
103061.35
102970.46
102881.11
102793.29
102706.86
102621.7
102537.68
102454.75
102372.8
102291.79
102211.64
102132.27
102053.64
101975.69
101898.36
101821.61
101745.37
101669.61
101594.28
101519.22
101444.55
101368.38
101293.77
101216.44
104000.81
103837.24
103657.79
103534.6
103435.59
103342.01
103248.93
103155.66
103062.98
102971.68
102882.04
102794
102707.42
102622.13
102538.02
102455.01
102373
102291.94
102211.73
102132.33
102053.67
101975.69
101898.34
101821.56
101745.31
101669.52
101594.18
101519.1
101444.42
101368.24
101293.57
101215.79
104001.9
103838.74
103662.05
103540.08
103440.22
103345.31
103251.18
103157.17
103064.01
102972.39
102882.52
102794.32
102707.61
102622.22
102538.04
102454.96
102372.9
102291.79
102211.56
102132.12
102053.43
101975.43
101898.06
101821.26
101744.99
101669.19
101593.84
101518.75
101444.05
101367.87
101293.17
101215.02
104002.92
103840.76
103666.8
103545.11
103443.9
103347.63
103252.57
103157.97
103064.43
102972.55
102882.5
102794.17
102707.36
102621.9
102537.66
102454.53
102372.43
102291.28
102211.02
102131.56
102052.85
101974.83
101897.44
101820.63
101744.34
101668.53
101593.17
101518.07
101443.37
101367.18
101292.49
101214.07
104003.86
103843.23
103671.58
103549.2
103446.35
103348.83
103253
103157.94
103064.11
102972.04
102881.86
102793.43
102706.55
102621.03
102536.74
102453.57
102371.44
102290.27
102209.98
102130.5
102051.78
101973.74
101896.34
101819.51
101743.22
101667.39
101592.02
101516.92
101442.22
101366.02
101291.38
101212.84
104004.73
103845.89
103675.66
103551.81
103447.25
103348.68
103252.27
103156.88
103062.85
102970.64
102880.37
102791.87
102704.93
102619.37
102535.04
102451.84
102369.69
102288.5
102208.2
102128.7
102049.97
101971.92
101894.5
101817.67
101741.37
101665.54
101590.17
101515.05
101440.35
101364.15
101289.57
101211.14
104005.52
103848.09
103678.02
103552.2
103446.12
103346.77
103249.97
103154.38
103060.22
102967.94
102877.6
102789.06
102702.09
102616.5
102532.16
102448.94
102366.77
102285.56
102205.24
102125.73
102046.98
101968.92
101891.5
101814.66
101738.35
101662.51
101587.13
101512.01
101437.3
101361.11
101286.59
101208.49
104006.18
103848.72
103677.24
103549.37
103442.16
103342.35
103245.32
103149.6
103055.36
102963.01
102872.63
102784.05
102697.05
102611.44
102527.07
102443.84
102361.66
102280.44
102200.11
102120.6
102041.84
101963.77
101886.34
101809.49
101733.18
101657.34
101581.95
101506.83
101432.11
101355.94
101281.5
101203.81
104006.65
103846.59
103671.65
103541.82
103433.77
103333.56
103236.31
103140.48
103046.16
102953.76
102863.36
102774.75
102687.74
102602.11
102517.74
102434.5
102352.32
102271.1
102190.77
102111.25
102032.49
101954.43
101877
101800.15
101723.83
101647.99
101572.6
101497.48
101422.77
101346.61
101272.25
101195.16
104006.87
103841.58
103660.44
103527.94
103419.09
103318.64
103221.35
103125.57
103031.34
102939.04
102848.72
102760.21
102673.27
102587.73
102503.43
102420.26
102338.14
102256.97
102176.69
102097.23
102018.51
101940.49
101863.1
101786.28
101710
101634.18
101558.82
101483.72
101409.03
101332.89
101258.58
101182.36
104006.79
103836.02
103648.64
103513.6
103404.04
103303.64
103206.64
103111.17
103017.23
102925.2
102835.12
102746.83
102660.09
102574.72
102490.58
102407.55
102325.55
102244.5
102164.33
102084.96
102006.34
101928.39
101851.08
101774.33
101698.11
101622.35
101547.04
101471.99
101397.34
101321.21
101246.81
101170.6
104006.49
103833.19
103643.17
103507.03
103397.19
103296.93
103200.16
103104.93
103011.22
102919.37
102829.47
102741.32
102654.72
102569.47
102485.43
102402.49
102320.58
102239.61
102159.51
102080.2
102001.63
101923.74
101846.47
101769.77
101693.58
101617.86
101542.58
101467.56
101392.93
101316.81
101242.33
101165.35
104006.17
103832.76
103642.64
103506.43
103396.61
103296.39
103199.67
103104.49
103010.81
102919.01
102829.14
102741.02
102654.44
102569.21
102485.19
102402.27
102320.37
102239.41
102159.32
102080.02
102001.47
101923.58
101846.32
101769.62
101693.45
101617.73
101542.46
101467.44
101392.82
101316.7
101242.21
101164.87
101430.15
101387.74
101339.98
101321.37
101318.18
101318.28
101317.09
101314.63
101311.69
101308.65
101305.66
101302.74
101299.91
101297.16
101294.45
101291.76
101289.03
101286.22
101283.3
101280.21
101276.91
101273.32
101269.37
101264.95
101259.92
101254.06
101247.06
101238.39
101227.18
101211.67
101191.04
101162.87
101430.22
101387.79
101340
101321.36
101318.14
101318.23
101317.03
101314.57
101311.63
101308.59
101305.6
101302.69
101299.86
101297.11
101294.4
101291.7
101288.98
101286.17
101283.25
101280.17
101276.86
101273.27
101269.33
101264.91
101259.88
101254.02
101247.02
101238.35
101227.14
101211.62
101190.98
101162.84
101430.26
101387.85
101340.04
101321.36
101318.16
101318.27
101317.09
101314.64
101311.7
101308.66
101305.66
101302.75
101299.91
101297.15
101294.45
101291.75
101289.01
101286.21
101283.28
101280.19
101276.89
101273.3
101269.35
101264.93
101259.9
101254.04
101247.03
101238.36
101227.16
101211.63
101190.98
101163.09
101430.25
101387.89
101340.15
101321.79
101318.97
101319.35
101318.31
101315.93
101313.01
101309.96
101306.93
101303.97
101301.1
101298.3
101295.56
101292.82
101290.06
101287.22
101284.27
101281.15
101277.82
101274.21
101270.24
101265.8
101260.75
101254.88
101247.86
101239.18
101227.98
101212.47
101191.94
101164.42
101430.15
101387.91
101340.37
101322.94
101321.31
101322.39
101321.72
101319.49
101316.61
101313.54
101310.47
101307.45
101304.52
101301.65
101298.84
101296.05
101293.22
101290.33
101287.33
101284.16
101280.79
101277.13
101273.12
101268.65
101263.57
101257.66
101250.62
101241.93
101230.71
101215.22
101194.77
101167.33
101429.97
101387.9
101340.64
101324.37
101324.16
101326.14
101325.88
101323.86
101321.05
101318
101314.91
101311.87
101308.89
101305.99
101303.15
101300.32
101297.46
101294.53
101291.49
101288.3
101284.89
101281.21
101277.17
101272.67
101267.57
101261.64
101254.58
101245.87
101234.63
101219.12
101198.58
101170.77
101429.69
101387.85
101340.86
101325.36
101326.16
101328.79
101328.86
101326.97
101324.22
101321.18
101318.1
101315.06
101312.09
101309.19
101306.34
101303.5
101300.63
101297.7
101294.65
101291.44
101288.03
101284.33
101280.29
101275.78
101270.66
101264.73
101257.66
101248.93
101237.69
101222.16
101201.56
101173.34
101429.31
101387.76
101340.95
101325.59
101326.92
101330.09
101330.48
101328.74
101326.05
101323.04
101319.97
101316.93
101313.96
101311.05
101308.2
101305.36
101302.5
101299.56
101296.52
101293.31
101289.89
101286.2
101282.15
101277.65
101272.53
101266.59
101259.52
101250.79
101239.53
101223.99
101203.37
101174.87
101428.83
101387.64
101340.95
101325.06
101326.34
101330.05
101330.98
101329.56
101327.03
101324.1
101321.08
101318.07
101315.12
101312.23
101309.39
101306.56
101303.71
101300.78
101297.74
101294.54
101291.12
101287.43
101283.39
101278.88
101273.76
101267.82
101260.74
101252.01
101240.74
101225.18
101204.48
101175.89
101428.24
101387.48
101340.94
101324.19
101324.8
101328.78
101330.34
101329.43
101327.2
101324.45
101321.53
101318.59
101315.68
101312.83
101310.02
101307.22
101304.38
101301.46
101298.43
101295.24
101291.84
101288.15
101284.11
101279.61
101274.49
101268.55
101261.47
101252.74
101241.46
101225.89
101205.16
101176.69
101427.54
101387.31
101340.99
101323.41
101322.91
101326.61
101328.65
101328.34
101326.57
101324.12
101321.4
101318.59
101315.78
101312.99
101310.23
101307.47
101304.66
101301.77
101298.76
101295.59
101292.2
101288.53
101284.5
101280.01
101274.9
101268.96
101261.89
101253.14
101241.87
101226.29
101205.57
101177.43
101426.72
101387.1
101341.11
101322.93
101321.25
101324.09
101326.13
101326.32
101325.09
101323.08
101320.67
101318.08
101315.42
101312.75
101310.08
101307.38
101304.62
101301.78
101298.81
101295.66
101292.3
101288.65
101284.64
101280.16
101275.06
101269.14
101262.07
101253.33
101242.06
101226.49
101205.83
101178.16
101425.75
101386.87
101341.3
101322.79
101320.15
101321.87
101323.28
101323.55
101322.78
101321.26
101319.26
101316.99
101314.56
101312.07
101309.53
101306.94
101304.27
101301.5
101298.58
101295.49
101292.16
101288.55
101284.56
101280.11
101275.03
101269.12
101262.07
101253.34
101242.08
101226.53
101205.99
101178.9
101424.63
101386.6
101341.55
101322.87
101319.64
101320.35
101320.78
101320.56
101319.85
101318.69
101317.11
101315.22
101313.12
101310.88
101308.54
101306.11
101303.57
101300.9
101298.07
101295.05
101291.78
101288.22
101284.28
101279.86
101274.81
101268.93
101261.9
101253.2
101241.96
101226.46
101206.08
101179.64
101423.32
101386.28
101341.85
101323.07
101319.51
101319.59
101319.1
101318.04
101316.9
101315.7
101314.35
101312.79
101311.02
101309.08
101307
101304.79
101302.43
101299.91
101297.2
101294.29
101291.11
101287.62
101283.74
101279.38
101274.38
101268.54
101261.55
101252.88
101241.69
101226.26
101206.09
101180.39
101421.79
101385.91
101342.18
101323.34
101319.57
101319.31
101318.25
101316.41
101314.55
101312.92
101311.41
101309.92
101308.36
101306.68
101304.86
101302.89
101300.75
101298.42
101295.89
101293.12
101290.06
101286.68
101282.9
101278.62
101273.69
101267.92
101260.98
101252.37
101241.24
101225.91
101206.01
101181.15
101420.03
101385.46
101342.56
101323.67
101319.72
101319.27
101317.93
101315.63
101313.14
101310.88
101308.92
101307.16
101305.52
101303.9
101302.23
101300.45
101298.52
101296.39
101294.05
101291.45
101288.55
101285.31
101281.65
101277.48
101272.65
101266.97
101260.12
101251.58
101240.55
101225.37
101205.79
101181.89
101417.99
101384.93
101342.97
101324.04
101319.91
101319.32
101317.85
101315.34
101312.51
101309.78
101307.3
101305.08
101303.1
101301.27
101299.51
101297.74
101295.89
101293.89
101291.7
101289.26
101286.52
101283.43
101279.92
101275.88
101271.18
101265.62
101258.87
101250.45
101239.54
101224.56
101205.39
101182.6
101415.64
101384.3
101343.42
101324.47
101320.13
101319.4
101317.86
101315.27
101312.3
101309.33
101306.52
101303.9
101301.51
101299.32
101297.27
101295.3
101293.32
101291.27
101289.09
101286.71
101284.07
101281.1
101277.71
101273.8
101269.23
101263.79
101257.17
101248.88
101238.13
101223.43
101204.76
101183.26
101412.97
101383.53
101343.91
101324.96
101320.38
101319.49
101317.89
101315.27
101312.26
101309.22
101306.26
101303.42
101300.75
101298.24
101295.85
101293.57
101291.33
101289.07
101286.74
101284.26
101281.56
101278.58
101275.22
101271.37
101266.88
101261.54
101255.04
101246.88
101236.31
101221.93
101203.88
101183.88
101409.96
101382.61
101344.43
101325.51
101320.67
101319.61
101317.92
101315.28
101312.27
101309.22
101306.22
101303.32
101300.52
101297.82
101295.21
101292.68
101290.18
101287.65
101285.07
101282.37
101279.5
101276.38
101272.92
101269
101264.47
101259.13
101252.67
101244.6
101234.18
101220.17
101202.86
101184.57
101406.65
101381.51
101344.96
101326.12
101321
101319.73
101317.97
101315.3
101312.28
101309.23
101306.24
101303.33
101300.5
101297.75
101295.05
101292.38
101289.71
101286.99
101284.2
101281.29
101278.21
101274.88
101271.23
101267.15
101262.5
101257.07
101250.55
101242.47
101232.15
101218.48
101201.99
101185.61
101403.11
101380.2
101345.49
101326.8
101321.36
101319.88
101318.02
101315.32
101312.3
101309.25
101306.27
101303.36
101300.54
101297.78
101295.07
101292.37
101289.63
101286.84
101283.94
101280.89
101277.66
101274.16
101270.34
101266.09
101261.29
101255.72
101249.08
101240.95
101230.69
101217.35
101201.73
101187.39
101399.44
101378.66
101346
101327.55
101321.77
101320.04
101318.07
101315.34
101312.31
101309.27
101306.29
101303.39
101300.57
101297.82
101295.11
101292.4
101289.67
101286.87
101283.94
101280.86
101277.56
101274
101270.09
101265.74
101260.83
101255.15
101248.43
101240.26
101230.09
101217.18
101202.44
101190.22
101395.64
101376.89
101346.45
101328.36
101322.23
101320.22
101318.14
101315.37
101312.34
101309.3
101306.32
101303.43
101300.61
101297.86
101295.15
101292.45
101289.72
101286.92
101284
101280.92
101277.62
101274.06
101270.14
101265.78
101260.84
101255.14
101248.43
101240.33
101230.36
101218.02
101204.28
101194.17
101391.6
101374.85
101346.82
101329.21
101322.73
101320.41
101318.21
101315.4
101312.36
101309.33
101306.36
101303.48
101300.67
101297.93
101295.22
101292.52
101289.79
101286.99
101284.07
101281
101277.71
101274.15
101270.25
101265.91
101261
101255.35
101248.73
101240.79
101231.14
101219.49
101206.96
101198.87
101387.21
101372.51
101347.04
101330.09
101323.27
101320.63
101318.28
101315.43
101312.38
101309.35
101306.4
101303.53
101300.73
101297.99
101295.3
101292.6
101289.88
101287.08
101284.17
101281.1
101277.82
101274.28
101270.4
101266.08
101261.22
101255.64
101249.13
101241.4
101232.14
101221.26
101210.07
101203.85
101382.5
101369.84
101347.07
101330.95
101323.85
101320.86
101318.36
101315.47
101312.4
101309.38
101306.44
101303.58
101300.79
101298.06
101295.37
101292.69
101289.97
101287.18
101284.28
101281.22
101277.96
101274.43
101270.58
101266.3
101261.49
101256.01
101249.64
101242.16
101233.38
101223.35
101213.55
101208.94