/*--------------------------------*- C++ -*----------------------------------*\
| =========                 |                                                 |
| \\      /  F ield         | OpenFOAM: The Open Source CFD Toolbox           |
|  \\    /   O peration     | Version:  2212                                  |
|   \\  /    A nd           | Website:  www.openfoam.com                      |
|    \\/     M anipulation  |                                                 |
\*---------------------------------------------------------------------------*/
FoamFile
{
    version     2.0;
    format      ascii;
    arch        "LSB;label=32;scalar=64";
    class       volScalarField;
    location    "5";
    object      T;
}
// * * * * * * * * * * * * * * * * * * * * * * * * * * * * * * * * * * * * * //

dimensions      [0 0 0 1 0 0 0];

internalField   nonuniform List<scalar> 
20480
(
301.43691
301.31485
301.18913
301.08796
301.00288
300.9222
300.8422
300.76325
300.68595
300.61033
300.53621
300.46336
300.39164
300.32091
300.25108
300.18208
300.11384
300.04631
299.97944
299.91317
299.84746
299.78226
299.71752
299.65321
299.58928
299.52575
299.46262
299.40031
299.33953
299.28474
299.24218
299.23887
301.43698
301.31484
301.18912
301.08797
301.00289
300.9222
300.8422
300.76325
300.68594
300.61033
300.53621
300.46336
300.39164
300.32091
300.25108
300.18208
300.11385
300.04632
299.97945
299.91319
299.84748
299.78228
299.71754
299.65323
299.5893
299.52576
299.46263
299.40032
299.33953
299.28473
299.24212
299.23888
301.43711
301.3148
301.1891
301.08799
301.00291
300.92221
300.84221
300.76325
300.68594
300.61032
300.5362
300.46336
300.39164
300.32092
300.2511
300.1821
300.11387
300.04635
299.97948
299.91322
299.84751
299.78231
299.71757
299.65326
299.58933
299.52578
299.46266
299.40033
299.33953
299.2847
299.242
299.2389
301.4373
301.31475
301.18907
301.08802
301.00295
300.92223
300.84222
300.76326
300.68594
300.61032
300.5362
300.46336
300.39165
300.32093
300.25112
300.18213
300.11391
300.04639
299.97953
299.91327
299.84756
299.78236
299.71762
299.6533
299.58937
299.52582
299.46269
299.40036
299.33953
299.28467
299.24183
299.23894
301.43756
301.31469
301.18904
301.08806
301.00299
300.92225
300.84223
300.76327
300.68595
300.61033
300.53621
300.46337
300.39166
300.32095
300.25115
300.18217
300.11396
300.04645
299.97959
299.91333
299.84762
299.78242
299.71768
299.65336
299.58943
299.52588
299.46274
299.4004
299.33953
299.28463
299.2416
299.23898
301.43788
301.31462
301.18899
301.08811
301.00304
300.92229
300.84225
300.76329
300.68597
300.61035
300.53623
300.46339
300.39169
300.32099
300.25119
300.18223
300.11402
300.04652
299.97967
299.91341
299.8477
299.7825
299.71776
299.65343
299.5895
299.52595
299.4628
299.40045
299.33953
299.28458
299.24132
299.23904
301.43827
301.31454
301.18894
301.08817
301.00311
300.92233
300.84229
300.76332
300.686
300.61038
300.53626
300.46343
300.39173
300.32103
300.25125
300.18229
300.1141
300.0466
299.97976
299.9135
299.8478
299.78259
299.71785
299.65353
299.58958
299.52603
299.46287
299.40051
299.33954
299.28452
299.24098
299.23912
301.43871
301.31445
301.18889
301.08824
301.00318
300.92238
300.84234
300.76338
300.68606
300.61044
300.53631
300.46348
300.39178
300.3211
300.25132
300.18237
300.11419
300.0467
299.97986
299.91361
299.84791
299.7827
299.71796
299.65363
299.58969
299.52612
299.46296
299.40059
299.33956
299.28446
299.24059
299.23921
301.43922
301.31435
301.18883
301.08831
301.00327
300.92245
300.84241
300.76345
300.68614
300.61051
300.53639
300.46356
300.39186
300.32118
300.25141
300.18247
300.11429
300.04681
299.97997
299.91373
299.84803
299.78282
299.71808
299.65375
299.5898
299.52623
299.46306
299.40067
299.33957
299.28439
299.24016
299.23932
301.43977
301.31425
301.18876
301.08839
301.00336
300.92253
300.84249
300.76355
300.68624
300.61061
300.53649
300.46365
300.39196
300.32128
300.25151
300.18258
300.1144
300.04693
299.9801
299.91386
299.84816
299.78296
299.71821
299.65388
299.58992
299.52635
299.46317
299.40076
299.33959
299.28432
299.23967
299.23946
301.44039
301.31413
301.18869
301.08848
301.00347
300.92263
300.8426
300.76366
300.68636
300.61074
300.53661
300.46378
300.39208
300.32139
300.25163
300.1827
300.11453
300.04706
299.98023
299.91399
299.8483
299.78309
299.71835
299.65401
299.59006
299.52648
299.46328
299.40086
299.33961
299.28424
299.23913
299.23962
301.44105
301.314
301.18861
301.08857
301.00358
300.92273
300.84272
300.7638
300.68651
300.61089
300.53676
300.46392
300.39221
300.32153
300.25176
300.18283
300.11466
300.04719
299.98037
299.91413
299.84844
299.78324
299.71849
299.65415
299.59019
299.52661
299.46341
299.40097
299.33962
299.28416
299.23853
299.2398
301.44175
301.31386
301.18852
301.08866
301.00371
300.92285
300.84285
300.76396
300.68667
300.61106
300.53693
300.46408
300.39237
300.32168
300.2519
300.18297
300.1148
300.04733
299.98051
299.91428
299.84858
299.78338
299.71863
299.65429
299.59033
299.52675
299.46353
299.40108
299.33964
299.28407
299.23788
299.24
301.44248
301.31369
301.18843
301.08876
301.00383
300.92297
300.843
300.76412
300.68685
300.61124
300.53711
300.46426
300.39254
300.32184
300.25205
300.18311
300.11494
300.04747
299.98065
299.91441
299.84872
299.78352
299.71877
299.65443
299.59047
299.52688
299.46365
299.40118
299.33965
299.28397
299.23717
299.24023
301.44325
301.31351
301.18832
301.08886
301.00397
300.9231
300.84315
300.7643
300.68704
300.61143
300.5373
300.46444
300.39271
300.322
300.25221
300.18326
300.11508
300.04761
299.98078
299.91455
299.84886
299.78366
299.71891
299.65457
299.5906
299.52701
299.46378
299.40129
299.33965
299.28386
299.23639
299.24049
301.44403
301.31331
301.1882
301.08896
301.0041
300.92324
300.8433
300.76447
300.68723
300.61162
300.53749
300.46463
300.39289
300.32217
300.25237
300.18341
300.11522
300.04774
299.98091
299.91467
299.84898
299.78378
299.71903
299.6547
299.59073
299.52714
299.46389
299.4014
299.33965
299.28374
299.23556
299.24078
301.44483
301.31308
301.18807
301.08905
301.00422
300.92336
300.84344
300.76464
300.6874
300.6118
300.53767
300.4648
300.39306
300.32233
300.25252
300.18355
300.11535
300.04786
299.98103
299.91479
299.8491
299.7839
299.71915
299.65481
299.59085
299.52726
299.46401
299.4015
299.33963
299.28362
299.23466
299.2411
301.44563
301.31282
301.18793
301.08913
301.00434
300.92347
300.84357
300.76479
300.68756
300.61197
300.53783
300.46497
300.39322
300.32248
300.25266
300.18368
300.11547
300.04797
299.98113
299.91489
299.8492
299.784
299.71926
299.65492
299.59096
299.52738
299.46412
299.4016
299.33962
299.28348
299.23369
299.24146
301.44644
301.31253
301.18777
301.08921
301.00444
300.92357
300.84368
300.76491
300.6877
300.61211
300.53798
300.46511
300.39336
300.32262
300.25279
300.18379
300.11557
300.04807
299.98123
299.91498
299.84929
299.78409
299.71935
299.65502
299.59107
299.52749
299.46422
299.40169
299.33959
299.28336
299.23269
299.24194
301.44725
301.31222
301.1876
301.08926
301.00452
300.92364
300.84376
300.765
300.6878
300.61221
300.53809
300.46522
300.39348
300.32273
300.25289
300.18389
300.11566
300.04815
299.9813
299.91506
299.84936
299.78417
299.71943
299.65511
299.59116
299.52759
299.46433
299.4018
299.33961
299.28337
299.23198
299.24325
301.44806
301.31188
301.1874
301.0893
301.00458
300.92368
300.84381
300.76506
300.68786
300.61228
300.53816
300.4653
300.39356
300.32281
300.25297
300.18396
300.11573
300.04821
299.98136
299.91511
299.84942
299.78423
299.7195
299.65519
299.59125
299.5277
299.46448
299.40207
299.34011
299.28472
299.2344
299.251
301.44886
301.3115
301.18718
301.08932
301.00461
300.92369
300.84381
300.76507
300.68787
300.6123
300.53819
300.46534
300.3936
300.32285
300.25301
300.184
300.11577
300.04825
299.98139
299.91515
299.84946
299.78428
299.71956
299.65527
299.59138
299.52797
299.46512
299.4038
299.34448
299.29477
299.25274
299.28324
301.44967
301.31109
301.18694
301.08931
301.00461
300.92366
300.84378
300.76504
300.68785
300.61228
300.53818
300.46534
300.3936
300.32286
300.25302
300.18402
300.11578
300.04826
299.98141
299.91516
299.84948
299.78432
299.71965
299.65549
299.59198
299.52966
299.46966
299.4146
299.36596
299.33097
299.30483
299.35352
301.45047
301.31065
301.18667
301.08927
301.00458
300.92359
300.8437
300.76496
300.68777
300.61222
300.53812
300.46529
300.39357
300.32283
300.253
300.184
300.11577
300.04825
299.9814
299.91517
299.84952
299.78447
299.72013
299.65699
299.59623
299.54011
299.49112
299.45159
299.42113
299.40534
299.3977
299.46601
301.45127
301.31018
301.18638
301.0892
301.00451
300.92349
300.84359
300.76484
300.68766
300.61211
300.53802
300.4652
300.39349
300.32277
300.25294
300.18395
300.11573
300.04822
299.9814
299.91525
299.84988
299.7857
299.72384
299.66654
299.6166
299.57621
299.54621
299.52727
299.51821
299.5243
299.53747
299.62682
301.45208
301.30966
301.18606
301.0891
301.00441
300.92335
300.84344
300.76469
300.68752
300.61197
300.53789
300.46508
300.39338
300.32267
300.25286
300.18388
300.11568
300.04824
299.98162
299.91616
299.85287
299.79393
299.74233
299.70066
299.67023
299.65157
299.64469
299.64989
299.66535
299.69556
299.7307
299.84105
301.45289
301.30911
301.18571
301.08898
301.00428
300.92319
300.84326
300.76452
300.68734
300.6118
300.53773
300.46493
300.39324
300.32254
300.25275
300.18382
300.11577
300.04883
299.98382
299.92276
299.86879
299.825
299.79324
299.77436
299.76871
299.77632
299.79649
299.82873
299.87039
299.92518
299.98173
300.11165
301.45371
301.30851
301.18534
301.08883
301.00413
300.923
300.84307
300.76433
300.68716
300.61162
300.53756
300.46476
300.39309
300.32242
300.25273
300.18412
300.11719
300.05365
299.99663
299.94974
299.91557
299.8955
299.89021
299.8999
299.92403
299.96165
300.01108
300.07115
300.13868
300.21728
300.29332
300.44071
301.45453
301.30787
301.18494
301.08867
301.00397
300.92281
300.84287
300.76413
300.68697
300.61144
300.53738
300.4646
300.39297
300.32249
300.25348
300.18722
300.12658
300.0756
300.03777
300.01523
300.00916
300.02012
300.04767
300.09083
300.14775
300.21665
300.29549
300.38268
300.47423
300.57356
300.66457
300.82455
301.45535
301.30719
301.18453
301.08849
301.0038
300.92262
300.84268
300.76395
300.68679
300.61127
300.53723
300.46452
300.39324
300.32414
300.25952
300.20352
300.16061
300.13401
300.12566
300.13666
300.16686
300.21534
300.27991
300.35857
300.44891
300.54832
300.65424
300.76452
300.87429
300.98644
301.08378
301.24773
301.45616
301.30646
301.18411
301.08831
301.00363
300.92245
300.84251
300.76379
300.68664
300.61114
300.53723
300.46517
300.39644
300.33472
300.28523
300.25262
300.23998
300.24929
300.28094
300.33417
300.40656
300.49572
300.59865
300.71199
300.83274
300.95734
301.08235
301.20543
301.32205
301.43562
301.52864
301.68742
301.45697
301.3057
301.18369
301.08814
301.00349
300.9223
300.84238
300.76368
300.68656
300.61127
300.53846
300.47072
300.4133
300.37237
300.35277
300.35778
300.38887
300.44571
300.52576
300.62607
300.74288
300.87193
301.00932
301.15031
301.29087
301.42769
301.5578
301.67979
301.79021
301.89382
301.97319
302.11973
301.45776
301.30494
301.18329
301.08799
301.00338
300.9222
300.8423
300.76364
300.68682
300.61325
300.54697
300.49496
300.46431
300.46037
300.48645
300.54328
300.62871
300.73918
300.87002
301.01579
301.17133
301.33046
301.48819
301.64032
301.78364
301.91626
302.03676
302.1452
302.23934
302.32521
302.38549
302.51624
301.45852
301.30423
301.18294
301.08789
301.00331
300.92215
300.8423
300.76399
300.68941
300.62436
300.57761
300.55748
300.57029
300.61916
300.70353
300.81961
300.962
301.12378
301.29815
301.47718
301.65437
301.82427
301.98304
302.12843
302.25922
302.37529
302.47677
302.56491
302.63822
302.70365
302.74347
302.8585
301.45924
301.30358
301.18266
301.08783
301.0033
300.92217
300.84263
300.76676
300.70197
300.65923
300.64881
300.67829
300.7508
300.86384
301.01198
301.18693
301.37979
301.58038
301.77991
301.97104
302.14882
302.31031
302.4542
302.58044
302.68968
302.7831
302.86183
302.92777
302.97976
303.02524
303.04569
303.14684
301.45993
301.303
301.18244
301.08782
301.00333
300.9224
300.84504
300.77913
300.73824
300.73559
300.78069
300.87664
301.01944
301.2006
301.409
301.63185
301.8568
302.07364
302.2753
302.45759
302.61878
302.75881
302.87864
302.97986
303.06423
303.13366
303.18968
303.23445
303.26679
303.29439
303.29768
303.38734
301.46061
301.3025
301.18229
301.08786
301.00347
300.92405
300.85557
300.8136
300.81538
300.87364
300.99198
301.1649
301.38006
301.62233
301.8746
302.12211
302.35395
302.56357
302.74803
302.90698
303.04165
303.1541
303.2467
303.32187
303.38185
303.42875
303.46415
303.49017
303.50547
303.51784
303.50656
303.58704
301.46127
301.30208
301.1822
301.08794
301.0043
300.93153
300.88504
300.88646
300.95355
301.09189
301.29445
301.54468
301.82131
302.103
302.37218
302.61767
302.83375
303.01902
303.17468
303.30329
303.40796
303.49187
303.55795
303.60888
303.64691
303.67406
303.69174
303.70191
303.70297
303.70276
303.67942
303.75276
301.46191
301.30173
301.18215
301.08823
301.00845
300.95353
300.94841
301.01773
301.17158
301.4022
301.68806
302.00054
302.31251
302.60382
302.86274
303.08487
303.2705
303.42253
303.54493
303.64189
303.71733
303.77474
303.81708
303.84687
303.86616
303.87671
303.87967
303.8768
303.86623
303.85581
303.82263
303.89054
301.46253
301.30145
301.18215
301.08983
301.02201
301.0029
301.06508
301.22696
301.48218
301.80382
302.15436
302.49914
302.81434
303.0879
303.31671
303.50305
303.65171
303.7682
303.8578
303.92524
303.97447
304.00881
304.03093
304.04302
304.0468
304.04375
304.03476
304.02135
304.0014
303.98279
303.94161
304.00549
301.46313
301.30119
301.18243
301.09612
301.05492
301.09752
301.25552
301.52865
301.8852
302.27679
302.65863
303.00143
303.29221
303.52942
303.7176
303.86368
303.97487
304.0577
304.11769
304.15934
304.18625
304.2013
304.20673
304.20437
304.19559
304.18158
304.16297
304.14112
304.11368
304.08855
304.04083
304.10187
301.46368
301.30093
301.18424
301.11354
301.12216
301.25835
301.53689
301.92483
302.36083
302.78591
303.16227
303.47474
303.72329
303.91521
304.05997
304.16678
304.24354
304.29672
304.33137
304.35142
304.35993
304.35924
304.35119
304.33721
304.31837
304.29561
304.26935
304.24077
304.20734
304.17704
304.12395
304.18316
301.46415
301.30085
301.19067
301.15281
301.24359
301.50547
301.91516
302.3979
302.87438
303.29298
303.63393
303.89837
304.09685
304.24206
304.34565
304.4172
304.46422
304.49244
304.50615
304.50861
304.50225
304.48895
304.47013
304.44689
304.42005
304.39033
304.35798
304.32406
304.28586
304.25146
304.19389
304.2522
301.46442
301.30177
301.20772
301.23009
301.4413
301.85056
302.3775
302.91492
303.38785
303.76713
304.05413
304.26323
304.41129
304.51313
304.58042
304.62197
304.64428
304.65211
304.64892
304.63727
304.61907
304.59574
304.56838
304.5378
304.50462
304.46939
304.4322
304.39402
304.35202
304.31438
304.25301
304.31133
301.46441
301.30585
301.24569
301.36657
301.73328
302.28851
302.89466
303.43799
303.8698
304.18902
304.41457
304.56876
304.67068
304.73479
304.77158
304.78848
304.7908
304.78231
304.76567
304.74285
304.71527
304.68402
304.6499
304.61352
304.57532
304.5357
304.49466
304.4531
304.40805
304.36783
304.30321
304.36247
301.46418
301.31758
301.32052
301.5844
302.12499
302.79691
303.42941
303.93407
304.29982
304.5503
304.71524
304.81962
304.88183
304.91456
304.92651
304.92365
304.91008
304.88867
304.86143
304.82979
304.79483
304.75733
304.71787
304.6769
304.63471
304.5916
304.5475
304.50323
304.45575
304.41348
304.34601
304.40723
301.4643
301.34519
301.45296
301.89966
302.6051
303.34118
303.94634
304.38029
304.66852
304.85091
304.96107
305.02291
305.05235
305.05976
305.05195
305.03347
305.0074
304.97585
304.94028
304.90172
304.86094
304.81851
304.77484
304.73022
304.68486
304.63897
304.59242
304.54598
304.49654
304.45268
304.38264
304.447
301.46655
301.40193
301.66474
302.31651
303.14645
303.88394
304.41858
304.76489
304.97508
305.09583
305.15939
305.18636
305.18956
305.17695
305.15363
305.12293
305.08709
305.04762
305.00551
304.96151
304.91616
304.86984
304.82282
304.77531
304.72742
304.67931
304.63079
304.58261
304.53158
304.48649
304.41411
304.48296
301.47482
301.50569
301.97341
302.82299
303.71293
304.39313
304.83027
305.08536
305.22419
305.2925
305.31807
305.3173
305.2999
305.27168
305.23629
305.1961
305.15265
305.10698
305.05975
305.01148
304.96252
304.91312
304.86344
304.81362
304.76371
304.71382
304.66372
304.61413
304.56182
304.51577
304.44123
304.51619
301.49628
301.67732
302.38701
303.39173
304.2676
304.84649
305.17567
305.34548
305.42329
305.44897
305.44451
305.42213
305.38879
305.3485
305.30378
305.25622
305.20685
305.15633
305.10509
305.05346
305.00164
304.94979
304.898
304.84633
304.79479
304.74347
304.69209
304.64137
304.58802
304.54125
304.46468
304.54766
301.54223
301.93763
302.89945
303.98632
304.77976
305.23264
305.45664
305.55252
305.58071
305.57286
305.54518
305.5062
305.46062
305.41106
305.35914
305.30587
305.25189
305.19758
305.14318
305.08889
305.0348
304.98101
304.92753
304.87438
304.82154
304.76905
304.71664
304.665
304.6108
304.5635
304.48503
304.57833
301.62858
302.30296
303.48955
304.56911
305.22887
305.54944
305.67969
305.71505
305.70437
305.67082
305.62546
305.57386
305.51894
305.46226
305.40479
305.3471
305.28951
305.23222
305.17533
305.11894
305.06306
305.00771
304.95287
304.89853
304.84463
304.7912
304.73795
304.68557
304.63068
304.583
304.50274
304.60913
301.77552
302.78053
304.12418
305.10777
305.60514
305.80138
305.85354
305.84152
305.80127
305.74837
305.68971
305.62857
305.56652
305.50439
305.44264
305.3815
305.32109
305.26146
305.20261
305.14454
305.08722
305.03063
304.9747
304.91939
304.86464
304.81045
304.75652
304.70353
304.64807
304.60016
304.5182
304.64104
302.00607
303.36485
304.76409
305.57932
305.90792
305.99672
305.98729
305.93949
305.87726
305.80996
305.74136
305.67301
305.60555
305.53923
305.47416
305.41034
305.34773
305.28624
305.22583
305.16643
305.10796
305.05037
304.99356
304.93747
304.88202
304.82721
304.77272
304.71924
304.66332
304.6153
304.53175
304.67513
302.3435
304.03617
305.37056
305.97153
306.14308
306.14522
306.08937
306.01532
305.937
305.85909
305.78309
305.70931
305.63771
305.56818
305.50054
305.43462
305.37026
305.30731
305.24566
305.18519
305.12581
305.06741
305.00989
304.95317
304.89716
304.84184
304.7869
304.73301
304.67672
304.62868
304.54367
304.71258
302.80747
304.76122
305.91129
306.2822
306.32022
306.25651
306.16698
306.07411
305.98416
305.89848
305.81696
305.73909
305.66433
305.59231
305.52267
305.45511
305.38938
305.32527
305.26262
305.20131
305.14119
305.08214
305.02404
304.96681
304.91034
304.85461
304.7993
304.74509
304.68849
304.64053
304.55418
304.7548
303.40877
305.49629
306.36442
306.51702
306.45028
306.33912
306.22595
306.11981
306.02153
305.93016
305.84453
305.76356
305.68638
305.61244
305.54125
305.4724
305.40559
305.34056
305.27713
305.21513
305.15442
305.09485
305.03629
304.97865
304.92181
304.86574
304.81014
304.75566
304.69882
304.651
304.56345
304.80333
304.14265
306.19197
306.7201
306.68666
306.54373
306.4
306.27067
306.15532
306.0511
305.95557
305.86689
305.78359
305.70457
305.62914
305.55674
305.4869
305.41923
305.35348
305.28942
305.22689
305.16571
305.10572
305.0468
304.98883
304.93169
304.87535
304.81951
304.76481
304.70779
304.66016
304.57155
304.85974
304.9808
306.79893
306.97961
306.80371
306.60941
306.44435
306.30428
306.1826
306.07417
305.97564
305.88471
305.79965
305.71924
305.6427
305.56938
305.49875
305.43044
305.36412
305.29958
305.23663
305.17508
305.11478
305.05556
304.99733
304.93996
304.88342
304.82738
304.77252
304.71535
304.66796
304.57841
304.92508
305.86356
307.27425
307.15284
306.88038
306.65417
306.47582
306.32882
306.20288
306.09155
305.99088
305.89833
305.81201
305.73058
305.65321
305.57921
305.50802
305.43922
305.37249
305.30759
305.24433
305.18251
305.12196
305.06253
305.0041
304.94656
304.88986
304.83368
304.77869
304.72141
304.67426
304.58384
304.99874
306.69652
307.5901
307.25547
306.92736
306.68319
306.49701
306.34571
306.21704
306.10378
306.0017
305.90805
305.82087
305.73875
305.66082
305.58636
305.51477
305.44564
305.37862
305.31348
305.25
305.18799
305.12728
305.0677
305.00915
304.95148
304.89467
304.83839
304.78332
304.72596
304.67901
304.58774
305.07605
307.3619
307.7487
307.30652
306.95326
306.70013
306.50967
306.35592
306.22564
306.11126
306.00834
305.91404
305.82636
305.74384
305.66558
305.59083
305.51902
305.44969
305.38251
305.31721
305.25361
305.19149
305.13068
305.07102
305.01239
304.95465
304.89777
304.84144
304.78631
304.72891
304.68207
304.58991
305.14456
307.76024
307.79519
307.3249
306.96411
306.70748
306.51516
306.36032
306.22934
306.11448
306.0112
305.91663
305.82874
305.74605
305.66765
305.59279
305.52088
305.45147
305.38421
305.31886
305.25521
305.19304
305.13219
305.07249
305.01383
304.95606
304.89916
304.8428
304.78765
304.73024
304.68342
304.59053
305.1867
307.88613
307.79886
307.32839
306.96645
306.70909
306.51634
306.36126
306.23014
306.11517
306.01181
305.91719
305.82925
305.74653
305.6681
305.59322
305.52129
305.45186
305.38459
305.31922
305.25556
305.19339
305.13253
305.07282
305.01415
304.95638
304.89947
304.84311
304.78796
304.73053
304.68372
304.59058
305.2016
297.90143
298.01843
298.02857
297.99101
297.9276
297.86642
297.81421
297.7706
297.73488
297.70536
297.68059
297.65953
297.64135
297.62543
297.6113
297.5986
297.58709
297.57652
297.56671
297.55748
297.54871
297.54025
297.53196
297.52374
297.5154
297.50673
297.49736
297.48676
297.47392
297.46067
297.4493
297.39897
297.88592
298.01871
298.02854
297.99091
297.92747
297.8663
297.81411
297.77052
297.73481
297.7053
297.68054
297.65949
297.64131
297.6254
297.61127
297.59858
297.58706
297.5765
297.56668
297.55746
297.54869
297.54023
297.53194
297.52372
297.51538
297.50671
297.49734
297.48673
297.4739
297.46064
297.44926
297.40932
297.82112
298.01622
298.02791
297.99026
297.92677
297.86567
297.81357
297.77007
297.73443
297.70499
297.68028
297.65926
297.64112
297.62523
297.61111
297.59844
297.58693
297.57638
297.56658
297.55736
297.54859
297.54013
297.53186
297.52363
297.51529
297.50662
297.49724
297.48663
297.47378
297.46051
297.44901
297.42776
297.68034
297.99659
298.02362
297.98769
297.92456
297.86378
297.81198
297.76874
297.73332
297.70404
297.67947
297.65856
297.64051
297.62469
297.61063
297.59801
297.58654
297.57602
297.56625
297.55705
297.5483
297.53986
297.53159
297.52337
297.51503
297.50635
297.49696
297.48633
297.47343
297.4601
297.44808
297.44687
297.46083
297.93231
298.00597
297.97958
297.91921
297.85963
297.80859
297.7659
297.73089
297.70193
297.67764
297.65696
297.6391
297.62343
297.60951
297.59699
297.58562
297.57517
297.56546
297.55632
297.54761
297.53921
297.53096
297.52276
297.51443
297.50574
297.49633
297.48566
297.47266
297.45916
297.44575
297.45851
297.18749
297.79382
297.95465
297.95765
297.90763
297.85194
297.80268
297.76103
297.72668
297.69824
297.67438
297.65408
297.63654
297.62115
297.60745
297.59513
297.58393
297.57362
297.56403
297.55498
297.54636
297.53802
297.52983
297.52167
297.51336
297.50467
297.49523
297.48451
297.47134
297.45755
297.4418
297.46129
296.90184
297.5689
297.84154
297.90614
297.88305
297.83792
297.79279
297.75313
297.71994
297.69236
297.66919
297.64947
297.63243
297.61747
297.60414
297.59214
297.5812
297.57112
297.56172
297.55284
297.54436
297.53614
297.52805
297.51995
297.51169
297.50302
297.49356
297.48279
297.46942
297.45523
297.43652
297.45861
296.64482
297.27538
297.64454
297.80182
297.83234
297.8107
297.77527
297.74002
297.70925
297.68323
297.66123
297.64244
297.62616
297.61185
297.59908
297.58755
297.57702
297.5673
297.5582
297.54958
297.54131
297.53328
297.52534
297.51737
297.50919
297.50058
297.49113
297.48032
297.46675
297.45212
297.43033
297.45365
296.44364
296.95652
297.36577
297.62115
297.73461
297.75788
297.74317
297.71771
297.69207
297.66915
297.64924
297.63201
297.61696
297.60366
297.59174
297.58092
297.571
297.56178
297.55312
297.54488
297.53694
297.52918
297.52147
297.51369
297.50566
297.49715
297.48775
297.47695
297.4632
297.44819
297.4235
297.44808
296.30684
296.66266
297.03949
297.35635
297.56533
297.65972
297.68417
297.67871
297.66369
297.64691
297.63094
297.61646
297.60347
297.59178
297.58118
297.57145
297.56243
297.55398
297.54597
297.53829
297.53082
297.52347
297.51612
297.50864
297.50084
297.49251
297.48323
297.47249
297.45863
297.4433
297.41615
297.44235
296.22707
296.43123
296.72054
297.03224
297.31078
297.49208
297.57903
297.61016
297.61562
297.61077
297.60224
297.59274
297.58332
297.57434
297.56585
297.55783
297.55021
297.54293
297.5359
297.52905
297.5223
297.51556
297.50873
297.50169
297.49427
297.48623
297.47718
297.46658
297.45271
297.43718
297.40809
297.43617
296.18819
296.27589
296.45935
296.70543
296.98955
297.2397
297.40458
297.49273
297.53394
297.5509
297.55609
297.55564
297.55253
297.54817
297.5432
297.53795
297.53256
297.52709
297.52157
297.51599
297.51032
297.50451
297.49847
297.49211
297.48526
297.47769
297.46902
297.45871
297.44497
297.42939
297.39893
297.42885
296.173
296.18797
296.28061
296.43697
296.66052
296.91974
297.14703
297.3044
297.39886
297.45191
297.48091
297.49643
297.50439
297.508
297.50899
297.50833
297.50655
297.504
297.50088
297.49729
297.49329
297.48889
297.48407
297.47873
297.47276
297.46594
297.45788
297.44809
297.43467
297.41926
297.38799
297.41944
296.16849
296.14675
296.1792
296.25863
296.39437
296.5947
296.82709
297.03569
297.19044
297.29374
297.35973
297.40149
297.42811
297.44523
297.45627
297.46326
297.46746
297.46967
297.47039
297.46997
297.46861
297.46644
297.46349
297.45977
297.45517
297.44952
297.44245
297.43348
297.4207
297.40573
297.37424
297.40669
296.16738
296.13115
296.13209
296.16332
296.22706
296.3412
296.51337
296.71638
296.90729
297.06063
297.17321
297.25257
297.30791
297.34666
297.37408
297.39364
297.40765
297.41762
297.42461
297.4293
297.43216
297.43352
297.43356
297.43237
297.42993
297.42613
297.42063
297.413
297.40132
297.38722
297.35613
297.38894
296.16679
296.12658
296.11444
296.12253
296.14581
296.19336
296.28351
296.423
296.59335
296.76432
296.91376
297.03372
297.12574
297.19498
297.24688
297.28591
297.3154
297.3378
297.35483
297.36773
297.37737
297.38439
297.38918
297.39202
297.39301
297.39215
297.38917
297.38368
297.37382
297.36121
297.33128
297.36384
296.16606
296.12569
296.10927
296.10864
296.11512
296.12939
296.16196
296.22717
296.33159
296.46628
296.61225
296.75174
296.87408
296.97578
297.05788
297.12321
297.17491
297.2158
297.24818
297.27383
297.2941
297.31003
297.32235
297.33158
297.33803
297.34184
297.34287
297.34083
297.33397
297.32379
297.29601
297.32787
296.16522
296.1258
296.10824
296.10495
296.10611
296.10864
296.11574
296.13551
296.1777
296.24842
296.34597
296.46124
296.58207
296.69815
296.8031
296.89418
296.97125
297.03549
297.08859
297.13227
297.16811
297.19739
297.22118
297.24025
297.25517
297.2663
297.27366
297.27707
297.27493
297.26873
297.24454
297.27565
296.16434
296.12623
296.10838
296.10433
296.10411
296.10365
296.10325
296.10555
296.11528
296.13877
296.18116
296.24415
296.32532
296.41895
296.51793
296.61574
296.7077
296.79112
296.86487
296.92895
296.98397
297.03079
297.07031
297.10337
297.13066
297.15267
297.16958
297.18135
297.18651
297.18655
297.16804
297.19906
296.16347
296.12686
296.10892
296.10454
296.10394
296.10286
296.101
296.09918
296.09865
296.10168
296.11185
296.13308
296.16814
296.21768
296.28032
296.35309
296.43197
296.51304
296.5927
296.66829
296.7381
296.80126
296.85745
296.90674
296.94937
296.98559
297.01547
297.03894
297.0546
297.06387
297.05387
297.08651
296.16257
296.12765
296.10973
296.10508
296.10428
296.10304
296.10094
296.09853
296.09621
296.09438
296.09386
296.09623
296.10379
296.11901
296.14368
296.17855
296.22316
296.27617
296.33571
296.39944
296.46494
296.53015
296.59317
296.65257
296.7073
296.75662
296.79989
296.8365
296.86473
296.88572
296.88717
296.92427
296.16156
296.12853
296.11074
296.10585
296.10486
296.10353
296.10136
296.09886
296.09634
296.09392
296.09169
296.08985
296.08885
296.08956
296.09325
296.10148
296.11568
296.1367
296.16484
296.19976
296.24061
296.28623
296.3353
296.38633
296.43777
296.48813
296.53592
296.57957
296.61657
296.64727
296.66041
296.70437
296.1604
296.12938
296.11187
296.10675
296.10557
296.10414
296.10192
296.09937
296.09681
296.09432
296.09193
296.08965
296.08748
296.08551
296.08388
296.08295
296.08332
296.08578
296.09126
296.10068
296.11469
296.1335
296.15702
296.18481
296.2161
296.24987
296.28487
296.31963
296.35161
296.38038
296.3976
296.44544
296.15903
296.1301
296.11298
296.10762
296.10623
296.10469
296.10241
296.09982
296.09722
296.09471
296.09228
296.08994
296.08768
296.08547
296.08329
296.08114
296.07904
296.07708
296.07542
296.07435
296.07426
296.07564
296.07898
296.08474
296.09317
296.10423
296.11749
296.13215
296.14654
296.16021
296.16888
296.21023
296.15737
296.13057
296.1139
296.10827
296.10664
296.10499
296.10266
296.10005
296.09744
296.09491
296.09247
296.0901
296.0878
296.08556
296.08333
296.08109
296.07881
296.07645
296.07399
296.0714
296.06869
296.06587
296.06297
296.06008
296.05728
296.05463
296.05208
296.04945
296.04611
296.04242
296.03747
296.06428
296.1553
296.13072
296.11455
296.1086
296.10669
296.10493
296.10258
296.1
296.09741
296.09491
296.09246
296.09009
296.08777
296.08549
296.08324
296.08097
296.07866
296.07627
296.07376
296.07108
296.06819
296.06503
296.06152
296.05759
296.05311
296.04791
296.04175
296.03435
296.02527
296.0154
296.00549
296.02201
296.15277
296.13054
296.11501
296.10874
296.10651
296.10463
296.10229
296.09974
296.0972
296.09473
296.09231
296.08993
296.08761
296.08532
296.08305
296.08077
296.07844
296.07604
296.07351
296.07083
296.06794
296.06478
296.06127
296.05733
296.05281
296.04755
296.04129
296.03379
296.02478
296.01529
296.00705
296.02003
296.14989
296.13012
296.11545
296.10895
296.1064
296.1044
296.10204
296.0995
296.09697
296.09451
296.0921
296.08974
296.08743
296.08515
296.08289
296.08061
296.07829
296.07589
296.07337
296.07068
296.0678
296.06464
296.06116
296.05724
296.05278
296.04761
296.04153
296.03434
296.02599
296.0175
296.01125