/*--------------------------------*- C++ -*----------------------------------*\
| =========                 |                                                 |
| \\      /  F ield         | OpenFOAM: The Open Source CFD Toolbox           |
|  \\    /   O peration     | Version:  2212                                  |
|   \\  /    A nd           | Website:  www.openfoam.com                      |
|    \\/     M anipulation  |                                                 |
\*---------------------------------------------------------------------------*/
FoamFile
{
    version     2.0;
    format      ascii;
    arch        "LSB;label=32;scalar=64";
    class       volVectorField;
    location    "5";
    object      U;
}
// * * * * * * * * * * * * * * * * * * * * * * * * * * * * * * * * * * * * * //

dimensions      [0 1 -1 0 0 0 0];

internalField   nonuniform List<vector> 
20480
(
(165.19868 0 -0.0089866803)
(165.74612 0 -0.012139614)
(166.48868 0 -0.010213931)
(167.15432 0 -0.0087234856)
(167.70404 0 -0.0084475114)
(168.19743 0 -0.0083034858)
(168.67571 0 -0.008024737)
(169.14703 0 -0.0077547766)
(169.6087 0 -0.0075402131)
(170.05928 0 -0.0073587819)
(170.4995 0 -0.007195634)
(170.93067 0 -0.0070473124)
(171.3539 0 -0.0069126743)
(171.76998 0 -0.0067902411)
(172.17953 0 -0.0066780895)
(172.58308 0 -0.0065747473)
(172.98109 0 -0.0064791876)
(173.37396 0 -0.0063904377)
(173.76208 0 -0.0063078445)
(174.14579 0 -0.0062304232)
(174.5254 0 -0.0061577398)
(174.90121 0 -0.0060891096)
(175.27348 0 -0.0060242662)
(175.64246 0 -0.0059624909)
(176.00835 0 -0.0059028421)
(176.37122 0 -0.0058414494)
(176.73084 0 -0.0057683705)
(177.08574 0 -0.0056378246)
(177.43117 0 -0.0053409648)
(177.75036 0 -0.0044546017)
(178.00427 0 -0.0025029246)
(178.10996 0 0.0014310269)
(165.1981 0 -0.026835583)
(165.74601 0 -0.036224535)
(166.48878 0 -0.030466295)
(167.15435 0 -0.026012145)
(167.70401 0 -0.02517475)
(168.1974 0 -0.024734132)
(168.67568 0 -0.023898827)
(169.147 0 -0.023093201)
(169.60867 0 -0.022453509)
(170.05925 0 -0.021912875)
(170.49946 0 -0.021427098)
(170.93063 0 -0.020985841)
(171.35385 0 -0.020585602)
(171.76993 0 -0.020221879)
(172.17949 0 -0.019888872)
(172.58304 0 -0.019582148)
(172.98104 0 -0.019298618)
(173.37392 0 -0.019035363)
(173.76203 0 -0.018790424)
(174.14574 0 -0.018560853)
(174.52535 0 -0.018345356)
(174.90116 0 -0.018141885)
(175.27343 0 -0.017949648)
(175.64241 0 -0.0177665)
(176.0083 0 -0.017589632)
(176.37117 0 -0.017407493)
(176.73079 0 -0.017190376)
(177.0857 0 -0.016801622)
(177.43116 0 -0.015915924)
(177.75042 0 -0.013269707)
(178.00447 0 -0.0074386957)
(178.11007 0 0.0043151019)
(165.19695 0 -0.044531341)
(165.74579 0 -0.060108498)
(166.48896 0 -0.050582692)
(167.15439 0 -0.043210283)
(167.70393 0 -0.04180717)
(168.19732 0 -0.041064722)
(168.67562 0 -0.039679625)
(169.14692 0 -0.038346353)
(169.60859 0 -0.037286409)
(170.05916 0 -0.03638957)
(170.49937 0 -0.03558342)
(170.93054 0 -0.034851037)
(171.35376 0 -0.034186619)
(171.76984 0 -0.033582701)
(172.17939 0 -0.033029675)
(172.58294 0 -0.03252021)
(172.98094 0 -0.0320492)
(173.37382 0 -0.031611814)
(173.76193 0 -0.031204817)
(174.14564 0 -0.030823321)
(174.52525 0 -0.030465187)
(174.90105 0 -0.030127019)
(175.27332 0 -0.029807511)
(175.6423 0 -0.029503101)
(176.0082 0 -0.02920914)
(176.37107 0 -0.028906481)
(176.73069 0 -0.028545879)
(177.08562 0 -0.027900758)
(177.43114 0 -0.026431551)
(177.75055 0 -0.022041241)
(178.00485 0 -0.012362302)
(178.11028 0 0.0071619322)
(165.19525 0 -0.062107149)
(165.74547 0 -0.083774022)
(166.48922 0 -0.070501512)
(167.15445 0 -0.060246132)
(167.70382 0 -0.058273578)
(168.19721 0 -0.057223357)
(168.67551 0 -0.055293034)
(169.14681 0 -0.053437667)
(169.60846 0 -0.051960664)
(170.05903 0 -0.050710019)
(170.49924 0 -0.049585963)
(170.93041 0 -0.048564958)
(171.35362 0 -0.047638802)
(171.76969 0 -0.046797043)
(172.17924 0 -0.04602626)
(172.58279 0 -0.045316232)
(172.98079 0 -0.044659836)
(173.37367 0 -0.044050322)
(173.76178 0 -0.043483186)
(174.14549 0 -0.042951597)
(174.52509 0 -0.042452586)
(174.9009 0 -0.041981401)
(175.27317 0 -0.041536236)
(175.64215 0 -0.041112118)
(176.00804 0 -0.040702594)
(176.37091 0 -0.040281031)
(176.73054 0 -0.039779061)
(177.0855 0 -0.038881361)
(177.43112 0 -0.036837864)
(177.75073 0 -0.030723764)
(178.00542 0 -0.017235653)
(178.1106 0 0.010041113)
(165.19302 0 -0.079588761)
(165.74505 0 -0.10722154)
(166.48956 0 -0.090218783)
(167.15452 0 -0.077132218)
(167.70367 0 -0.074596061)
(168.19706 0 -0.07323478)
(168.67538 0 -0.070765766)
(169.14667 0 -0.068395993)
(169.60831 0 -0.066506969)
(170.05886 0 -0.064906372)
(170.49907 0 -0.063467927)
(170.93023 0 -0.062161472)
(171.35344 0 -0.060976369)
(171.76951 0 -0.059899221)
(172.17905 0 -0.058912845)
(172.5826 0 -0.05800418)
(172.9806 0 -0.057164117)
(173.37347 0 -0.056384015)
(173.76158 0 -0.055658134)
(174.14528 0 -0.054977711)
(174.52489 0 -0.054338981)
(174.90069 0 -0.053735842)
(175.27296 0 -0.053166013)
(175.64194 0 -0.052623119)
(176.00783 0 -0.052098964)
(176.3707 0 -0.051559543)
(176.73035 0 -0.050917881)
(177.08534 0 -0.049771164)
(177.43109 0 -0.047163273)
(177.75097 0 -0.03934596)
(178.00617 0 -0.022087074)
(178.11101 0 0.012948638)
(165.19026 0 -0.096998826)
(165.74454 0 -0.13045249)
(166.48998 0 -0.10972962)
(167.1546 0 -0.093870391)
(167.70348 0 -0.090775644)
(168.19687 0 -0.089095851)
(168.67522 0 -0.086092304)
(169.14649 0 -0.083214477)
(169.60811 0 -0.080917253)
(170.05866 0 -0.078969437)
(170.49885 0 -0.077219165)
(170.93001 0 -0.075629644)
(171.35321 0 -0.074187763)
(171.76928 0 -0.072877207)
(172.17882 0 -0.071677062)
(172.58236 0 -0.070571461)
(172.98035 0 -0.069549326)
(173.37322 0 -0.068600131)
(173.76133 0 -0.067716919)
(174.14503 0 -0.066888995)
(174.52464 0 -0.066111823)
(174.90044 0 -0.06537794)
(175.2727 0 -0.064684618)
(175.64168 0 -0.064024078)
(176.00757 0 -0.063386441)
(176.37045 0 -0.062730458)
(176.7301 0 -0.061951145)
(177.08514 0 -0.06055954)
(177.43104 0 -0.057398594)
(177.75127 0 -0.047899926)
(178.0071 0 -0.026909634)
(178.11151 0 0.015912451)
(165.187 0 -0.11435843)
(165.74393 0 -0.15346812)
(166.49048 0 -0.12902913)
(167.1547 0 -0.11046209)
(167.70327 0 -0.1068146)
(168.19665 0 -0.10480777)
(168.67502 0 -0.10127434)
(169.14628 0 -0.097895786)
(169.60787 0 -0.095194896)
(170.05841 0 -0.092903165)
(170.4986 0 -0.090844151)
(170.92974 0 -0.08897442)
(171.35294 0 -0.087278336)
(171.769 0 -0.085736701)
(172.17854 0 -0.084324896)
(172.58207 0 -0.083024286)
(172.98007 0 -0.081821849)
(173.37293 0 -0.080705182)
(173.76104 0 -0.079666145)
(174.14474 0 -0.078692101)
(174.52434 0 -0.077777786)
(174.90013 0 -0.076914366)
(175.2724 0 -0.076098701)
(175.64138 0 -0.075321604)
(176.00726 0 -0.074571592)
(176.37015 0 -0.073800311)
(176.72982 0 -0.072885444)
(177.08491 0 -0.071253327)
(177.43099 0 -0.06755174)
(177.75162 0 -0.056394532)
(178.00821 0 -0.031712959)
(178.11211 0 0.018943615)
(165.18325 0 -0.131687)
(165.74324 0 -0.17626902)
(166.49104 0 -0.14811272)
(167.15481 0 -0.12690883)
(167.70301 0 -0.12271525)
(168.19639 0 -0.12037169)
(168.67479 0 -0.11631291)
(169.14603 0 -0.11244099)
(169.6076 0 -0.10934078)
(170.05813 0 -0.10670817)
(170.4983 0 -0.10434324)
(170.92944 0 -0.10219591)
(171.35263 0 -0.10024796)
(171.76868 0 -0.098477354)
(172.17822 0 -0.09685579)
(172.58175 0 -0.095361915)
(172.97974 0 -0.093980789)
(173.3726 0 -0.092698137)
(173.7607 0 -0.091504669)
(174.14439 0 -0.090385796)
(174.52399 0 -0.08933557)
(174.89979 0 -0.088343766)
(175.27205 0 -0.087406871)
(175.64102 0 -0.086514286)
(176.00691 0 -0.085653004)
(176.3698 0 -0.08476771)
(176.72949 0 -0.083719518)
(177.08464 0 -0.081851576)
(177.43093 0 -0.077622871)
(177.75202 0 -0.064830939)
(178.00948 0 -0.03649911)
(178.1128 0 0.022060209)
(165.17903 0 -0.14900214)
(165.74248 0 -0.19885495)
(166.49168 0 -0.16697613)
(167.15493 0 -0.14321222)
(167.70273 0 -0.13847979)
(168.19611 0 -0.13578873)
(168.67454 0 -0.13120901)
(169.14576 0 -0.12685125)
(169.6073 0 -0.12335609)
(170.05781 0 -0.12038564)
(170.49797 0 -0.11771767)
(170.9291 0 -0.1152954)
(171.35228 0 -0.11309798)
(171.76833 0 -0.11110056)
(172.17785 0 -0.10927119)
(172.58138 0 -0.10758586)
(172.97936 0 -0.10602771)
(173.37222 0 -0.10458062)
(173.76032 0 -0.10323417)
(174.14401 0 -0.1019718)
(174.5236 0 -0.10078694)
(174.8994 0 -0.099667942)
(175.27166 0 -0.098610964)
(175.64063 0 -0.097603985)
(176.00652 0 -0.096632565)
(176.3694 0 -0.095634587)
(176.72911 0 -0.094455421)
(177.08434 0 -0.092356624)
(177.43086 0 -0.087615357)
(177.75247 0 -0.073213468)
(178.01093 0 -0.041273383)
(178.11357 0 0.025276605)
(165.17434 0 -0.16631942)
(165.74164 0 -0.22122478)
(166.49239 0 -0.18561543)
(167.15506 0 -0.15937387)
(167.70242 0 -0.15411025)
(168.19579 0 -0.15105996)
(168.67425 0 -0.14596367)
(169.14545 0 -0.14112772)
(169.60696 0 -0.13724198)
(170.05745 0 -0.13393671)
(170.49761 0 -0.13096852)
(170.92872 0 -0.12827394)
(171.3519 0 -0.1258294)
(171.76793 0 -0.12360727)
(172.17745 0 -0.12157202)
(172.58097 0 -0.11969698)
(172.97895 0 -0.11796344)
(173.3718 0 -0.11635341)
(173.75989 0 -0.11485538)
(174.14358 0 -0.11345084)
(174.52317 0 -0.11213258)
(174.89896 0 -0.11088755)
(175.27122 0 -0.10971162)
(175.64019 0 -0.10859132)
(176.00608 0 -0.10751089)
(176.36897 0 -0.10640157)
(176.7287 0 -0.10509387)
(177.084 0 -0.10276943)
(177.43079 0 -0.097531131)
(177.75298 0 -0.081544956)
(178.01255 0 -0.046039683)
(178.11442 0 0.028608211)
(165.1692 0 -0.18365245)
(165.74073 0 -0.2433765)
(166.49317 0 -0.20402704)
(167.1552 0 -0.17539546)
(167.70207 0 -0.16960849)
(168.19544 0 -0.16618643)
(168.67394 0 -0.16057794)
(169.14511 0 -0.15527155)
(169.60659 0 -0.15099959)
(170.05706 0 -0.14736247)
(170.4972 0 -0.14409689)
(170.92831 0 -0.14113259)
(171.35147 0 -0.13844325)
(171.7675 0 -0.13599852)
(172.17701 0 -0.13375926)
(172.58052 0 -0.13169626)
(172.97849 0 -0.12978896)
(173.37134 0 -0.12801749)
(173.75943 0 -0.12636932)
(174.14311 0 -0.1248239)
(174.5227 0 -0.12337352)
(174.89849 0 -0.12200364)
(175.27074 0 -0.12070989)
(175.63971 0 -0.11947737)
(176.00559 0 -0.11828907)
(176.36849 0 -0.11706976)
(176.72825 0 -0.11563608)
(177.08363 0 -0.11309145)
(177.4307 0 -0.10737257)
(177.75352 0 -0.08982866)
(178.01433 0 -0.050802455)
(178.11536 0 0.032069583)
(165.16362 0 -0.20101318)
(165.73977 0 -0.26530741)
(166.494 0 -0.22220779)
(167.15535 0 -0.19127874)
(167.7017 0 -0.18497624)
(168.19506 0 -0.18116917)
(168.6736 0 -0.17505288)
(169.14475 0 -0.16928388)
(169.60619 0 -0.16463003)
(170.05664 0 -0.16066401)
(170.49677 0 -0.15710383)
(170.92786 0 -0.15387239)
(171.35101 0 -0.15094056)
(171.76703 0 -0.1482753)
(172.17653 0 -0.14583391)
(172.58003 0 -0.14358468)
(172.978 0 -0.14150522)
(173.37084 0 -0.13957381)
(173.75893 0 -0.13777692)
(174.1426 0 -0.13609194)
(174.52219 0 -0.1345107)
(174.89797 0 -0.13301714)
(175.27022 0 -0.13160671)
(175.63918 0 -0.13026305)
(176.00507 0 -0.12896803)
(176.36797 0 -0.12764012)
(176.72776 0 -0.12608309)
(177.08322 0 -0.1233239)
(177.43061 0 -0.11714176)
(177.75412 0 -0.098067521)
(178.01628 0 -0.055565932)
(178.11636 0 0.035675283)
(165.15762 0 -0.21841241)
(165.73875 0 -0.28701446)
(166.4949 0 -0.24015502)
(167.1555 0 -0.20702556)
(167.70131 0 -0.2002151)
(168.19466 0 -0.19600922)
(168.67324 0 -0.1893896)
(169.14435 0 -0.18316585)
(169.60576 0 -0.17813443)
(170.05618 0 -0.17384244)
(170.4963 0 -0.16999043)
(170.92738 0 -0.16649442)
(171.35052 0 -0.16332238)
(171.76652 0 -0.16043864)
(172.17601 0 -0.15779697)
(172.57951 0 -0.15536323)
(172.97747 0 -0.15311323)
(173.3703 0 -0.15102337)
(173.75838 0 -0.14907917)
(174.14206 0 -0.14725595)
(174.52163 0 -0.14554512)
(174.89741 0 -0.14392905)
(175.26966 0 -0.14240309)
(175.63862 0 -0.14094938)
(176.00451 0 -0.13954879)
(176.36741 0 -0.13811366)
(176.72722 0 -0.13643597)
(177.08278 0 -0.13346806)
(177.4305 0 -0.12684079)
(177.75475 0 -0.10626444)
(178.0184 0 -0.060334422)
(178.11744 0 0.039439668)
(165.15122 0 -0.23586065)
(165.73769 0 -0.30849449)
(166.49586 0 -0.25786667)
(167.15565 0 -0.22263789)
(167.70088 0 -0.21532656)
(168.19423 0 -0.2107076)
(168.67285 0 -0.2035892)
(169.14393 0 -0.19691858)
(169.6053 0 -0.19151387)
(170.0557 0 -0.18689883)
(170.49579 0 -0.18275775)
(170.92686 0 -0.17899971)
(171.34999 0 -0.17558973)
(171.76598 0 -0.17248955)
(172.17546 0 -0.16964945)
(172.57895 0 -0.16703291)
(172.9769 0 -0.16461396)
(173.36973 0 -0.16236716)
(173.7578 0 -0.16027708)
(174.14147 0 -0.15831693)
(174.52104 0 -0.15647778)
(174.89682 0 -0.15474037)
(175.26906 0 -0.15310002)
(175.63802 0 -0.15153734)
(176.0039 0 -0.15003232)
(176.36681 0 -0.14849136)
(176.72666 0 -0.14669577)
(177.08231 0 -0.14352511)
(177.43038 0 -0.13647163)
(177.75543 0 -0.11442216)
(178.02068 0 -0.065112206)
(178.11858 0 0.043377063)
(165.14442 0 -0.25336912)
(165.73659 0 -0.32974469)
(166.49688 0 -0.27534132)
(167.1558 0 -0.23811783)
(167.70043 0 -0.23031195)
(168.19378 0 -0.22526532)
(168.67243 0 -0.21765279)
(169.14348 0 -0.21054318)
(169.60481 0 -0.20476943)
(170.05518 0 -0.19983424)
(170.49526 0 -0.19540685)
(170.92631 0 -0.19138931)
(171.34942 0 -0.18774365)
(171.7654 0 -0.18442906)
(172.17487 0 -0.18139237)
(172.57835 0 -0.17859473)
(172.9763 0 -0.17600844)
(173.36911 0 -0.17360617)
(173.75718 0 -0.17137163)
(174.14084 0 -0.16927587)
(174.52041 0 -0.16730966)
(174.89618 0 -0.16545208)
(175.26842 0 -0.16369847)
(175.63738 0 -0.16202789)
(176.00326 0 -0.16041958)
(176.36617 0 -0.15877418)
(176.72605 0 -0.15686348)
(177.08181 0 -0.15349617)
(177.43026 0 -0.14603611)
(177.75614 0 -0.12254329)
(178.02313 0 -0.069903565)
(178.11979 0 0.047501825)
(165.13724 0 -0.27095098)
(165.73546 0 -0.35076294)
(166.49795 0 -0.29257836)
(167.15596 0 -0.25346766)
(167.69996 0 -0.24517256)
(168.1933 0 -0.23968339)
(168.67199 0 -0.23158154)
(169.143 0 -0.22404078)
(169.60429 0 -0.21790221)
(170.05463 0 -0.21264976)
(170.49469 0 -0.2079388)
(170.92573 0 -0.20366429)
(171.34882 0 -0.19978519)
(171.76479 0 -0.19625823)
(172.17425 0 -0.19302677)
(172.57772 0 -0.19004974)
(172.97566 0 -0.18729769)
(173.36847 0 -0.18474144)
(173.75653 0 -0.18236387)
(174.14018 0 -0.18013379)
(174.51975 0 -0.17804179)
(174.89551 0 -0.17606519)
(175.26775 0 -0.17419943)
(175.6367 0 -0.172422)
(176.00258 0 -0.17071151)
(176.3655 0 -0.16896304)
(176.72541 0 -0.16694009)
(177.08128 0 -0.16338232)
(177.43012 0 -0.155536)
(177.75689 0 -0.13063033)
(178.02575 0 -0.074712792)
(178.12106 0 0.051828494)
(165.12968 0 -0.28862244)
(165.73431 0 -0.37154806)
(166.49906 0 -0.30957798)
(167.15611 0 -0.26868983)
(167.69946 0 -0.25990957)
(168.1928 0 -0.25396284)
(168.67153 0 -0.24537662)
(169.1425 0 -0.2374125)
(169.60374 0 -0.23091327)
(170.05406 0 -0.22534646)
(170.4941 0 -0.22035468)
(170.92511 0 -0.21582571)
(171.3482 0 -0.21171543)
(171.76415 0 -0.20797812)
(172.1736 0 -0.20455371)
(172.57706 0 -0.20139898)
(172.97498 0 -0.19848275)
(173.36779 0 -0.195774)
(173.75584 0 -0.1932548)
(174.13949 0 -0.19089169)
(174.51905 0 -0.18867513)
(174.89481 0 -0.18658064)
(175.26704 0 -0.18460384)
(175.63598 0 -0.18272058)
(176.00186 0 -0.18090903)
(176.36479 0 -0.17905883)
(176.72473 0 -0.1769265)
(177.08072 0 -0.17318456)
(177.42997 0 -0.16497295)
(177.75768 0 -0.13868567)
(178.02853 0 -0.079544298)
(178.12238 0 0.056371793)
(165.12178 0 -0.3064037)
(165.73314 0 -0.39209988)
(166.50023 0 -0.32634116)
(167.15625 0 -0.28378693)
(167.69894 0 -0.27452409)
(168.19227 0 -0.26810472)
(168.67104 0 -0.25903923)
(169.14197 0 -0.25065945)
(169.60316 0 -0.24380371)
(170.05345 0 -0.23792543)
(170.49347 0 -0.23265556)
(170.92447 0 -0.22787465)
(171.34754 0 -0.22353544)
(171.76348 0 -0.2195898)
(172.17292 0 -0.21597427)
(172.57636 0 -0.21264351)
(172.97428 0 -0.20956468)
(173.36707 0 -0.20670488)
(173.75512 0 -0.20404543)
(174.13876 0 -0.20155056)
(174.51831 0 -0.19921067)
(174.89406 0 -0.19699938)
(175.26629 0 -0.19491261)
(175.63524 0 -0.19292452)
(176.00111 0 -0.19101299)
(176.36405 0 -0.18906241)
(176.72403 0 -0.18682361)
(177.08012 0 -0.1829039)
(177.42981 0 -0.17434859)
(177.75849 0 -0.14671145)
(178.03147 0 -0.084402386)
(178.12376 0 0.061143087)
(165.11353 0 -0.32431964)
(165.73195 0 -0.41241916)
(166.50145 0 -0.34286965)
(167.15639 0 -0.29876177)
(167.6984 0 -0.2890172)
(168.19173 0 -0.2821101)
(168.67053 0 -0.27257061)
(169.14141 0 -0.26378281)
(169.60256 0 -0.25657464)
(170.05282 0 -0.25038778)
(170.49282 0 -0.24484257)
(170.9238 0 -0.23981221)
(171.34685 0 -0.2352463)
(171.76278 0 -0.23109435)
(172.1722 0 -0.2272895)
(172.57564 0 -0.22378439)
(172.97354 0 -0.2205445)
(173.36632 0 -0.21753508)
(173.75436 0 -0.21473676)
(174.138 0 -0.21211136)
(174.51754 0 -0.20964932)
(174.89329 0 -0.20732231)
(175.26551 0 -0.20512662)
(175.63445 0 -0.20303469)
(176.00033 0 -0.20102426)
(176.36327 0 -0.19897468)
(176.72328 0 -0.19663231)
(177.0795 0 -0.19254066)
(177.42963 0 -0.18366116)
(177.75932 0 -0.15470099)
(178.03456 0 -0.089278128)
(178.12513 0 0.06613616)
(165.10494 0 -0.34239984)
(165.73077 0 -0.43250718)
(166.5027 0 -0.35916585)
(167.15652 0 -0.31361722)
(167.69784 0 -0.30338986)
(168.19116 0 -0.29598008)
(168.67 0 -0.28597204)
(169.14084 0 -0.27678373)
(169.60194 0 -0.26922717)
(170.05216 0 -0.26273463)
(170.49214 0 -0.25691678)
(170.9231 0 -0.25163947)
(171.34613 0 -0.24684909)
(171.76204 0 -0.24249284)
(172.17145 0 -0.23850046)
(172.57488 0 -0.23482265)
(172.97277 0 -0.23142321)
(173.36554 0 -0.22826558)
(173.75357 0 -0.22532972)
(174.1372 0 -0.22257498)
(174.51674 0 -0.21999196)
(174.89248 0 -0.21755027)
(175.2647 0 -0.21524671)
(175.63364 0 -0.21305195)
(175.99951 0 -0.21094368)
(176.36245 0 -0.20879571)
(176.7225 0 -0.20634942)
(177.07882 0 -0.20208238)
(177.42937 0 -0.19288153)
(177.76003 0 -0.16261446)
(178.03749 0 -0.094152897)
(178.12593 0 0.071229942)
(165.09604 0 -0.36067815)
(165.72959 0 -0.45236528)
(166.504 0 -0.37523267)
(167.15665 0 -0.32835628)
(167.69727 0 -0.317643)
(168.19058 0 -0.30971576)
(168.66944 0 -0.2992448)
(169.14023 0 -0.28966337)
(169.60128 0 -0.28176241)
(170.05148 0 -0.27496706)
(170.49143 0 -0.26887928)
(170.92237 0 -0.26335748)
(171.34538 0 -0.25834485)
(171.76128 0 -0.25378628)
(172.17068 0 -0.24960815)
(172.57409 0 -0.24575925)
(172.97197 0 -0.24220178)
(173.36474 0 -0.2388973)
(173.75276 0 -0.23582521)
(174.13638 0 -0.23294229)
(174.51591 0 -0.23023945)
(174.89164 0 -0.22768417)
(175.26385 0 -0.22527374)
(175.63278 0 -0.22297641)
(175.99865 0 -0.2207679)
(176.36158 0 -0.21851224)
(176.72161 0 -0.21594324)
(177.07789 0 -0.21148772)
(177.42849 0 -0.20203462)
(177.75922 0 -0.1706997)
(178.03732 0 -0.099489748)
(178.12034 0 0.075948583)
(165.08682 0 -0.37919164)
(165.72843 0 -0.47199422)
(166.50533 0 -0.39107345)
(167.15676 0 -0.34298199)
(167.69667 0 -0.33177749)
(168.18997 0 -0.32331831)
(168.66886 0 -0.31239025)
(169.13961 0 -0.30242294)
(169.60061 0 -0.29418152)
(170.05077 0 -0.28708622)
(170.49069 0 -0.28073118)
(170.92161 0 -0.27496732)
(171.34461 0 -0.26973462)
(171.76049 0 -0.26497571)
(172.16987 0 -0.26061356)
(172.57327 0 -0.25659517)
(172.97114 0 -0.25288113)
(173.3639 0 -0.24943115)
(173.75191 0 -0.24622412)
(174.13552 0 -0.24321422)
(174.51504 0 -0.24039269)
(174.89077 0 -0.23772421)
(175.26297 0 -0.23520465)
(175.63188 0 -0.23279517)
(175.99769 0 -0.23046548)
(176.36045 0 -0.22808413)
(176.72002 0 -0.22545221)
(177.07506 0 -0.22106128)
(177.42288 0 -0.21173215)
(177.74834 0 -0.17943958)
(178.01924 0 -0.1049105)
(178.08678 0 0.081298337)
(165.07731 0 -0.39797871)
(165.72729 0 -0.49139331)
(166.5067 0 -0.4066917)
(167.15686 0 -0.35749739)
(167.69606 0 -0.3457941)
(168.18935 0 -0.33678887)
(168.66827 0 -0.32540971)
(169.13896 0 -0.31506361)
(169.59991 0 -0.30648559)
(170.05003 0 -0.29909318)
(170.48993 0 -0.29247351)
(170.92083 0 -0.28647)
(171.34381 0 -0.28101937)
(171.75967 0 -0.27606206)
(172.16904 0 -0.27151762)
(172.57242 0 -0.2673313)
(172.97028 0 -0.26346214)
(173.36303 0 -0.25986802)
(173.75103 0 -0.25652736)
(174.13463 0 -0.25339116)
(174.51414 0 -0.25044922)
(174.88985 0 -0.24765873)
(175.26198 0 -0.24500947)
(175.63072 0 -0.24246824)
(175.99602 0 -0.24007298)
(176.35737 0 -0.23781714)
(176.71344 0 -0.23548879)
(177.06117 0 -0.23117639)
(177.39676 0 -0.22127993)
(177.70549 0 -0.18705751)
(177.95781 0 -0.1084234)
(178.00039 0 0.088037535)
(165.06751 0 -0.41707701)
(165.72618 0 -0.51055975)
(166.50811 0 -0.42209105)
(167.15694 0 -0.37190546)
(167.69543 0 -0.3596935)
(168.18872 0 -0.35012861)
(168.66765 0 -0.33830452)
(169.13829 0 -0.32758656)
(169.59918 0 -0.31867572)
(170.04927 0 -0.310989)
(170.48915 0 -0.30410728)
(170.92003 0 -0.29786646)
(171.34298 0 -0.29220004)
(171.75883 0 -0.28704623)
(172.16818 0 -0.28232118)
(172.57155 0 -0.27796853)
(172.9694 0 -0.27394575)
(173.36213 0 -0.27020855)
(173.75012 0 -0.26673331)
(174.1337 0 -0.26346345)
(174.51315 0 -0.26038181)
(174.88869 0 -0.25744737)
(175.26035 0 -0.25471322)
(175.62772 0 -0.25227969)
(175.98952 0 -0.25019322)
(176.34332 0 -0.24808629)
(176.68612 0 -0.24533525)
(177.01453 0 -0.24001145)
(177.32604 0 -0.22886049)
(177.6076 0 -0.1928105)
(177.8318 0 -0.11039386)
(177.84062 0 0.095564394)
(165.05742 0 -0.43652096)
(165.72511 0 -0.52948809)
(166.50954 0 -0.43727518)
(167.15702 0 -0.38620909)
(167.69479 0 -0.37347631)
(168.18807 0 -0.36333872)
(168.66702 0 -0.35107606)
(169.13761 0 -0.33999297)
(169.59844 0 -0.33075301)
(170.04849 0 -0.32277474)
(170.48834 0 -0.3156335)
(170.91919 0 -0.30915768)
(171.34213 0 -0.30327755)
(171.75796 0 -0.29792915)
(172.16729 0 -0.29302524)
(172.57065 0 -0.28850771)
(172.96848 0 -0.28433131)
(173.36119 0 -0.28044569)
(173.74913 0 -0.27681892)
(174.13257 0 -0.27339105)
(174.5116 0 -0.27019713)
(174.88591 0 -0.26733194)
(175.25428 0 -0.26489747)
(175.61433 0 -0.26265574)
(175.96283 0 -0.26020099)
(176.29667 0 -0.25713732)
(176.61359 0 -0.25323699)
(176.91118 0 -0.24694202)
(177.18744 0 -0.23498715)
(177.43 0 -0.19738045)
(177.61395 0 -0.11098033)
(177.57762 0 0.10491353)
(165.04706 0 -0.45633911)
(165.72409 0 -0.54816964)
(166.511 0 -0.4522477)
(167.15708 0 -0.40041102)
(167.69413 0 -0.38714295)
(168.1874 0 -0.37642031)
(168.66636 0 -0.36372561)
(169.1369 0 -0.35228393)
(169.59768 0 -0.34271847)
(170.04769 0 -0.33445138)
(170.48751 0 -0.32705311)
(170.91834 0 -0.32034455)
(171.34126 0 -0.31425282)
(171.75706 0 -0.30871175)
(172.16638 0 -0.30362993)
(172.56972 0 -0.29894454)
(172.96751 0 -0.29460104)
(173.3601 0 -0.29054183)
(173.74769 0 -0.28677019)
(174.13009 0 -0.28335537)
(174.50624 0 -0.28043412)
(174.87377 0 -0.27781765)
(175.22927 0 -0.27511166)
(175.56925 0 -0.27196283)
(175.89091 0 -0.26834225)
(176.1919 0 -0.26429174)
(176.47004 0 -0.25958836)
(176.72273 0 -0.25239284)
(176.94858 0 -0.2392073)
(177.13703 0 -0.19909718)
(177.26668 0 -0.10773862)
(177.17332 0 0.11922507)
(165.03644 0 -0.47655215)
(165.72313 0 -0.56659249)
(166.51249 0 -0.46701226)
(167.15712 0 -0.41451387)
(167.69346 0 -0.4006938)
(168.18672 0 -0.38937454)
(168.66569 0 -0.37625447)
(169.13617 0 -0.36446052)
(169.59689 0 -0.35457307)
(170.04686 0 -0.34601984)
(170.48666 0 -0.33836702)
(170.91746 0 -0.33142804)
(171.34036 0 -0.32512657)
(171.75614 0 -0.31939216)
(172.16542 0 -0.31412333)
(172.56867 0 -0.3092468)
(172.9662 0 -0.3047235)
(173.35798 0 -0.30060578)
(173.74321 0 -0.29704986)
(174.11969 0 -0.29394168)
(174.48385 0 -0.29089141)
(174.8317 0 -0.28746253)
(175.1598 0 -0.28358774)
(175.46526 0 -0.27938941)
(175.74522 0 -0.27484035)
(175.99701 0 -0.2697861)
(176.21871 0 -0.26350062)
(176.4085 0 -0.25385493)
(176.56632 0 -0.23785512)
(176.68435 0 -0.19619577)
(176.74509 0 -0.10106558)
(176.58284 0 0.13368725)
(165.02556 0 -0.49717142)
(165.72225 0 -0.58474146)
(166.514 0 -0.48157246)
(167.15714 0 -0.42852009)
(167.69279 0 -0.41412921)
(168.18602 0 -0.40220268)
(168.665 0 -0.38866412)
(169.13542 0 -0.37652401)
(169.59609 0 -0.366318)
(170.04602 0 -0.35748133)
(170.48578 0 -0.34957641)
(170.91656 0 -0.34240826)
(171.33942 0 -0.33589272)
(171.75514 0 -0.32994684)
(172.16425 0 -0.32446588)
(172.56692 0 -0.31945205)
(172.96267 0 -0.31504695)
(173.34963 0 -0.31126614)
(173.72426 0 -0.3077603)
(174.08207 0 -0.30399995)
(174.41884 0 -0.29981499)
(174.73086 0 -0.29527008)
(175.01456 0 -0.29033016)
(175.26656 0 -0.28499467)
(175.48426 0 -0.27845721)
(175.66567 0 -0.27045876)
(175.81023 0 -0.26192718)
(175.91742 0 -0.25178814)
(175.98849 0 -0.23598049)
(176.01745 0 -0.19335516)
(175.99299 0 -0.094935175)
(175.74748 0 0.14936082)
(165.01443 0 -0.51819888)
(165.72144 0 -0.60259841)
(166.51553 0 -0.49593124)
(167.15715 0 -0.44243101)
(167.6921 0 -0.42744836)
(168.18532 0 -0.41490493)
(168.66429 0 -0.40095504)
(169.13466 0 -0.38847482)
(169.59527 0 -0.37795385)
(170.04516 0 -0.3688364)
(170.48489 0 -0.36067926)
(170.91562 0 -0.35327153)
(171.33837 0 -0.34651557)
(171.75372 0 -0.3403611)
(172.16162 0 -0.33486678)
(172.56072 0 -0.33015862)
(172.94773 0 -0.32599301)
(173.31782 0 -0.32180283)
(173.66587 0 -0.31726096)
(173.98718 0 -0.31232701)
(174.27719 0 -0.30693987)
(174.53158 0 -0.30112049)
(174.74686 0 -0.29376579)
(174.92037 0 -0.28497697)
(175.0512 0 -0.27644534)
(175.1386 0 -0.26803951)
(175.18271 0 -0.25939507)
(175.184 0 -0.2487597)
(175.14584 0 -0.23242549)
(175.06549 0 -0.187735)
(174.94044 0 -0.084966808)
(174.60117 0 0.1716698)
(165.00306 0 -0.53963011)
(165.72072 0 -0.62014702)
(166.51708 0 -0.5100943)
(167.15715 0 -0.45625007)
(167.69141 0 -0.4406522)
(168.18461 0 -0.42748249)
(168.66358 0 -0.413128)
(169.13389 0 -0.40031325)
(169.59444 0 -0.38948016)
(170.04428 0 -0.3800794)
(170.48393 0 -0.37165215)
(170.91446 0 -0.36397989)
(171.33649 0 -0.35706771)
(171.74949 0 -0.35109275)
(172.15087 0 -0.34597416)
(172.53574 0 -0.34117649)
(172.89808 0 -0.33617281)
(173.232 0 -0.33079508)
(173.53169 0 -0.32493256)
(173.79152 0 -0.31856417)
(174.00678 0 -0.31034005)
(174.17378 0 -0.30050513)
(174.2911 0 -0.29131912)
(174.35742 0 -0.28221715)
(174.37267 0 -0.2732327)
(174.33776 0 -0.26430266)
(174.25424 0 -0.25422165)
(174.12523 0 -0.24089877)
(173.95835 0 -0.22153521)
(173.75693 0 -0.17505655)
(173.52651 0 -0.068494753)
(173.09678 0 0.19825011)
(164.99148 0 -0.56145273)
(165.72011 0 -0.63737716)
(166.51865 0 -0.52407488)
(167.15713 0 -0.4699901)
(167.69073 0 -0.45375395)
(168.1839 0 -0.43995039)
(168.66286 0 -0.42519805)
(169.1331 0 -0.41205286)
(169.59358 0 -0.40090194)
(170.04331 0 -0.39119282)
(170.4826 0 -0.38249216)
(170.91182 0 -0.37477751)
(171.32961 0 -0.36821244)
(171.7318 0 -0.36246158)
(172.11179 0 -0.35680179)
(172.46229 0 -0.35084845)
(172.77594 0 -0.34441836)
(173.04536 0 -0.33746233)
(173.26409 0 -0.32846915)
(173.42697 0 -0.31757253)
(173.53163 0 -0.30747306)
(173.57598 0 -0.29735787)
(173.55987 0 -0.28736539)
(173.48435 0 -0.27747544)
(173.35142 0 -0.26628867)
(173.16587 0 -0.25398928)
(172.93404 0 -0.24085499)
(172.66329 0 -0.22573872)
(172.36463 0 -0.20538742)
(172.04617 0 -0.1584428)
(171.72036 0 -0.0496489)
(171.21602 0 0.22683543)
(164.97971 0 -0.58355664)
(165.71962 0 -0.65420365)
(166.52024 0 -0.53780635)
(167.15712 0 -0.48357528)
(167.69005 0 -0.46667982)
(168.1832 0 -0.45224048)
(168.66214 0 -0.43709921)
(169.1323 0 -0.42361959)
(169.5926 0 -0.41212388)
(170.04174 0 -0.40214693)
(170.4788 0 -0.39354898)
(170.901 0 -0.38625082)
(171.30218 0 -0.37961759)
(171.67387 0 -0.37297885)
(172.00688 0 -0.36596045)
(172.29162 0 -0.35835546)
(172.51909 0 -0.34882003)
(172.68187 0 -0.33682785)
(172.77596 0 -0.32538726)
(172.79838 0 -0.31399621)
(172.74857 0 -0.3027425)
(172.62778 0 -0.29147335)
(172.43889 0 -0.27846099)
(172.18873 0 -0.26446836)
(171.88554 0 -0.2501646)
(171.53863 0 -0.23583173)
(171.15822 0 -0.22172796)
(170.75419 0 -0.20628962)
(170.33908 0 -0.18621618)
(169.92292 0 -0.13992827)
(169.52298 0 -0.029886956)
(168.9687 0 0.25613802)
(164.96806 0 -0.60533314)
(165.71925 0 -0.67029)
(166.5218 0 -0.55104296)
(167.15709 0 -0.49673348)
(167.6894 0 -0.47916584)
(168.1825 0 -0.46410216)
(168.6614 0 -0.44857677)
(169.13133 0 -0.43474303)
(169.59075 0 -0.42299748)
(170.03643 0 -0.41322489)
(170.46295 0 -0.4049369)
(170.86158 0 -0.39716943)
(171.22145 0 -0.38932258)
(171.53054 0 -0.38094548)
(171.77658 0 -0.37117345)
(171.9488 0 -0.35848607)
(172.04014 0 -0.34533549)
(172.04617 0 -0.33242554)
(171.96541 0 -0.3196636)
(171.79923 0 -0.30676278)
(171.55154 0 -0.29181513)
(171.2315 0 -0.27580342)
(170.85013 0 -0.25968313)
(170.41982 0 -0.24383222)
(169.95333 0 -0.22872863)
(169.46225 0 -0.21428882)
(168.95745 0 -0.20047159)
(168.44838 0 -0.18561426)
(167.94687 0 -0.16637337)
(167.46309 0 -0.12113123)
(167.01638 0 -0.010460081)
(166.44268 0 0.28485122)
(164.95689 0 -0.62601942)
(165.71901 0 -0.6851927)
(166.52327 0 -0.5634205)
(167.15705 0 -0.50906468)
(167.68878 0 -0.49082546)
(168.18182 0 -0.47515972)
(168.6605 0 -0.45924753)
(169.12932 0 -0.44519145)
(169.58414 0 -0.43368719)
(170.0159 0 -0.4240438)
(170.41221 0 -0.41496118)
(170.75882 0 -0.40568179)
(171.03987 0 -0.39566983)
(171.24003 0 -0.38275544)
(171.34718 0 -0.36781077)
(171.35391 0 -0.35320995)
(171.25644 0 -0.33871683)
(171.05563 0 -0.3241299)
(170.75594 0 -0.30738772)
(170.36869 0 -0.28931142)
(169.90821 0 -0.27115578)
(169.3908 0 -0.25345339)
(168.83286 0 -0.23668501)
(168.24915 0 -0.22093328)
(167.65273 0 -0.20629101)
(167.05416 0 -0.19255352)
(166.4623 0 -0.17938732)
(165.88438 0 -0.16522297)
(165.33044 0 -0.1468816)
(164.81012 0 -0.1029238)
(164.34217 0 0.0082810804)
(163.7765 0 0.31150099)
(164.94629 0 -0.64546793)
(165.71888 0 -0.69893372)
(166.52466 0 -0.57494626)
(167.15701 0 -0.52055032)
(167.68818 0 -0.50164101)
(168.18099 0 -0.48538116)
(168.65852 0 -0.46920594)
(169.12207 0 -0.45538674)
(169.56045 0 -0.44386925)
(169.95637 0 -0.43323982)
(170.29041 0 -0.4223997)
(170.54163 0 -0.41003364)
(170.69072 0 -0.39393314)
(170.72462 0 -0.37758333)
(170.63485 0 -0.36122186)
(170.41986 0 -0.34478433)
(170.08346 0 -0.3264254)
(169.63833 0 -0.30621512)
(169.10237 0 -0.28570466)
(168.49672 0 -0.26576066)
(167.84259 0 -0.24693093)
(167.15922 0 -0.22939795)
(166.46311 0 -0.21320386)
(165.76746 0 -0.19820559)
(165.08254 0 -0.18425082)
(164.416 0 -0.17119446)
(163.77368 0 -0.15879167)
(163.16005 0 -0.14552485)
(162.5831 0 -0.12830109)
(162.05187 0 -0.08587363)
(161.58721 0 0.025724324)