/*--------------------------------*- C++ -*----------------------------------*\
| =========                 |                                                 |
| \\      /  F ield         | OpenFOAM: The Open Source CFD Toolbox           |
|  \\    /   O peration     | Version:  2212                                  |
|   \\  /    A nd           | Website:  www.openfoam.com                      |
|    \\/     M anipulation  |                                                 |
\*---------------------------------------------------------------------------*/
FoamFile
{
    version     2.0;
    format      ascii;
    arch        "LSB;label=32;scalar=64";
    class       volScalarField;
    location    "0";
    object      V;
}
// * * * * * * * * * * * * * * * * * * * * * * * * * * * * * * * * * * * * * //

dimensions      [0 3 0 0 0 0 0];

internalField   nonuniform List<scalar> 
20480
(
0.00425362
0.00425345
0.00425328
0.00425311
0.00425294
0.00425276
0.00425261
0.00425243
0.00425226
0.00425209
0.00425192
0.00425175
0.00425158
0.00425141
0.00425124
0.00425107
0.0042509
0.00425073
0.00425056
0.00425039
0.00425022
0.00425005
0.00424988
0.00424971
0.00424954
0.00424937
0.0042492
0.00424903
0.00424886
0.00424869
0.00424852
0.00424835
0.00421445
0.00421429
0.00421412
0.00421395
0.00421378
0.0042136
0.00421345
0.00421328
0.0042131
0.00421294
0.00421277
0.0042126
0.00421244
0.00421226
0.00421209
0.00421193
0.00421176
0.00421159
0.00421142
0.00421126
0.00421109
0.00421092
0.00421075
0.00421058
0.00421041
0.00421024
0.00421008
0.00420991
0.00420974
0.00420957
0.0042094
0.00420923
0.00417565
0.00417548
0.00417532
0.00417515
0.00417499
0.00417481
0.00417466
0.00417448
0.00417431
0.00417415
0.00417398
0.00417382
0.00417365
0.00417348
0.00417331
0.00417315
0.00417298
0.00417282
0.00417264
0.00417248
0.00417231
0.00417215
0.00417198
0.00417181
0.00417164
0.00417148
0.00417131
0.00417114
0.00417098
0.00417081
0.00417064
0.00417048
0.0041372
0.00413704
0.00413687
0.00413671
0.00413655
0.00413637
0.00413622
0.00413605
0.00413588
0.00413572
0.00413555
0.00413538
0.00413522
0.00413505
0.00413489
0.00413472
0.00413456
0.00413439
0.00413422
0.00413406
0.0041339
0.00413373
0.00413356
0.0041334
0.00413323
0.00413307
0.0041329
0.00413274
0.00413257
0.00413241
0.00413224
0.00413208
0.00409911
0.00409895
0.00409878
0.00409862
0.00409846
0.00409828
0.00409813
0.00409797
0.0040978
0.00409764
0.00409747
0.00409731
0.00409715
0.00409698
0.00409682
0.00409665
0.00409649
0.00409633
0.00409616
0.004096
0.00409583
0.00409567
0.00409551
0.00409534
0.00409518
0.00409501
0.00409485
0.00409469
0.00409452
0.00409436
0.0040942
0.00409403
0.00406137
0.00406121
0.00406105
0.00406089
0.00406073
0.00406055
0.0040604
0.00406024
0.00406007
0.00405991
0.00405975
0.00405959
0.00405942
0.00405926
0.0040591
0.00405894
0.00405877
0.00405861
0.00405845
0.00405829
0.00405812
0.00405796
0.0040578
0.00405764
0.00405747
0.00405731
0.00405715
0.00405699
0.00405683
0.00405666
0.0040565
0.00405634
0.00402397
0.00402381
0.00402365
0.00402349
0.00402333
0.00402316
0.00402302
0.00402285
0.00402268
0.00402253
0.00402236
0.00402221
0.00402205
0.00402188
0.00402172
0.00402156
0.0040214
0.00402124
0.00402108
0.00402092
0.00402076
0.0040206
0.00402043
0.00402028
0.00402011
0.00401995
0.00401979
0.00401963
0.00401947
0.00401931
0.00401915
0.00401899
0.00398692
0.00398676
0.00398661
0.00398645
0.00398629
0.00398612
0.00398597
0.00398581
0.00398565
0.00398549
0.00398533
0.00398517
0.00398501
0.00398485
0.00398469
0.00398453
0.00398438
0.00398422
0.00398405
0.0039839
0.00398374
0.00398358
0.00398342
0.00398326
0.0039831
0.00398294
0.00398278
0.00398262
0.00398246
0.0039823
0.00398214
0.00398198
0.00395021
0.00395006
0.0039499
0.00394975
0.00394959
0.00394942
0.00394928
0.00394911
0.00394895
0.0039488
0.00394864
0.00394848
0.00394832
0.00394816
0.003948
0.00394785
0.00394769
0.00394753
0.00394737
0.00394722
0.00394706
0.0039469
0.00394674
0.00394659
0.00394643
0.00394627
0.00394611
0.00394595
0.0039458
0.00394564
0.00394548
0.00394532
0.00391385
0.00391369
0.00391353
0.00391338
0.00391322
0.00391306
0.00391291
0.00391275
0.00391259
0.00391244
0.00391228
0.00391213
0.00391197
0.00391181
0.00391165
0.0039115
0.00391134
0.00391119
0.00391103
0.00391088
0.00391072
0.00391056
0.0039104
0.00391025
0.00391009
0.00390994
0.00390978
0.00390962
0.00390947
0.00390931
0.00390915
0.003909
0.00387781
0.00387765
0.0038775
0.00387735
0.00387719
0.00387703
0.00387688
0.00387672
0.00387656
0.00387642
0.00387626
0.0038761
0.00387595
0.00387579
0.00387564
0.00387548
0.00387533
0.00387517
0.00387502
0.00387486
0.00387471
0.00387455
0.0038744
0.00387424
0.00387409
0.00387393
0.00387378
0.00387362
0.00387347
0.00387331
0.00387316
0.003873
0.0038421
0.00384195
0.0038418
0.00384164
0.00384149
0.00384133
0.00384119
0.00384103
0.00384087
0.00384072
0.00384057
0.00384041
0.00384026
0.0038401
0.00383995
0.0038398
0.00383965
0.00383949
0.00383934
0.00383919
0.00383903
0.00383888
0.00383872
0.00383857
0.00383842
0.00383826
0.00383811
0.00383796
0.0038378
0.00383765
0.0038375
0.00383734
0.00380673
0.00380658
0.00380643
0.00380628
0.00380613
0.00380596
0.00380582
0.00380567
0.00380551
0.00380537
0.00380521
0.00380506
0.00380491
0.00380475
0.0038046
0.00380445
0.0038043
0.00380415
0.00380399
0.00380384
0.00380369
0.00380354
0.00380338
0.00380323
0.00380308
0.00380293
0.00380278
0.00380262
0.00380247
0.00380232
0.00380217
0.00380202
0.00377168
0.00377153
0.00377138
0.00377123
0.00377108
0.00377092
0.00377078
0.00377062
0.00377047
0.00377033
0.00377017
0.00377002
0.00376987
0.00376972
0.00376957
0.00376942
0.00376927
0.00376912
0.00376896
0.00376882
0.00376866
0.00376851
0.00376836
0.00376821
0.00376806
0.00376791
0.00376776
0.00376761
0.00376746
0.00376731
0.00376716
0.00376701
0.00373695
0.0037368
0.00373665
0.00373651
0.00373636
0.0037362
0.00373606
0.00373591
0.00373575
0.00373561
0.00373546
0.00373531
0.00373516
0.00373501
0.00373486
0.00373471
0.00373456
0.00373441
0.00373426
0.00373411
0.00373396
0.00373382
0.00373366
0.00373352
0.00373337
0.00373322
0.00373307
0.00373292
0.00373277
0.00373262
0.00373247
0.00373232
0.00370254
0.0037024
0.00370225
0.0037021
0.00370196
0.0037018
0.00370166
0.00370151
0.00370136
0.00370122
0.00370106
0.00370092
0.00370077
0.00370062
0.00370047
0.00370033
0.00370018
0.00370003
0.00369988
0.00369974
0.00369959
0.00369944
0.00369929
0.00369914
0.00369899
0.00369885
0.0036987
0.00369855
0.0036984
0.00369825
0.00369811
0.00369796
0.00366845
0.00366831
0.00366816
0.00366801
0.00366787
0.00366771
0.00366758
0.00366743
0.00366728
0.00366714
0.00366698
0.00366684
0.00366669
0.00366654
0.0036664
0.00366625
0.00366611
0.00366596
0.00366581
0.00366567
0.00366552
0.00366537
0.00366523
0.00366508
0.00366493
0.00366479
0.00366464
0.00366449
0.00366435
0.0036642
0.00366405
0.00366391
0.00363467
0.00363453
0.00363439
0.00363424
0.0036341
0.00363394
0.00363381
0.00363366
0.00363351
0.00363337
0.00363322
0.00363308
0.00363293
0.00363278
0.00363264
0.0036325
0.00363235
0.00363221
0.00363206
0.00363192
0.00363177
0.00363163
0.00363148
0.00363133
0.00363119
0.00363104
0.0036309
0.00363075
0.00363061
0.00363046
0.00363032
0.00363017
0.00360121
0.00360107
0.00360093
0.00360079
0.00360064
0.00360049
0.00360036
0.00360021
0.00360006
0.00359992
0.00359978
0.00359963
0.00359949
0.00359934
0.0035992
0.00359906
0.00359891
0.00359877
0.00359862
0.00359848
0.00359834
0.00359819
0.00359805
0.00359791
0.00359776
0.00359762
0.00359747
0.00359733
0.00359719
0.00359704
0.0035969
0.00359675
0.00356805
0.00356791
0.00356776
0.00356762
0.00356748
0.00356733
0.0035672
0.00356705
0.00356691
0.00356677
0.00356662
0.00356648
0.00356634
0.00356619
0.00356605
0.00356591
0.00356577
0.00356563
0.00356548
0.00356534
0.0035652
0.00356506
0.00356491
0.00356477
0.00356463
0.00356448
0.00356434
0.0035642
0.00356406
0.00356391
0.00356377
0.00356363
0.0035352
0.00353506
0.00353492
0.00353478
0.00353464
0.00353449
0.00353436
0.00353421
0.00353407
0.00353393
0.00353379
0.00353365
0.00353351
0.00353336
0.00353322
0.00353308
0.00353294
0.0035328
0.00353265
0.00353252
0.00353237
0.00353223
0.00353209
0.00353195
0.00353181
0.00353167
0.00353153
0.00353138
0.00353124
0.0035311
0.00353096
0.00353082
0.00350266
0.00350252
0.00350238
0.00350224
0.0035021
0.00350195
0.00350182
0.00350168
0.00350153
0.0035014
0.00350126
0.00350112
0.00350098
0.00350083
0.0035007
0.00350056
0.00350042
0.00350028
0.00350014
0.0035
0.00349986
0.00349972
0.00349958
0.00349944
0.0034993
0.00349916
0.00349902
0.00349888
0.00349874
0.0034986
0.00349846
0.00349832
0.00347039
0.00347026
0.00347012
0.00346998
0.00346984
0.0034697
0.00346957
0.00346943
0.00346928
0.00346915
0.00346901
0.00346887
0.00346873
0.00346859
0.00346845
0.00346831
0.00346818
0.00346804
0.0034679
0.00346776
0.00346762
0.00346748
0.00346734
0.00346721
0.00346707
0.00346693
0.00346679
0.00346665
0.00346651
0.00346637
0.00346623
0.0034661
0.00343845
0.00343831
0.00343818
0.00343804
0.0034379
0.00343776
0.00343763
0.00343749
0.00343735
0.00343722
0.00343707
0.00343694
0.0034368
0.00343666
0.00343652
0.00343639
0.00343625
0.00343612
0.00343597
0.00343584
0.0034357
0.00343556
0.00343543
0.00343529
0.00343515
0.00343501
0.00343488
0.00343474
0.0034346
0.00343446
0.00343433
0.00343419
0.00340679
0.00340666
0.00340652
0.00340639
0.00340625
0.00340611
0.00340598
0.00340584
0.0034057
0.00340557
0.00340543
0.0034053
0.00340516
0.00340502
0.00340489
0.00340475
0.00340461
0.00340448
0.00340434
0.00340421
0.00340407
0.00340393
0.0034038
0.00340366
0.00340352
0.00340339
0.00340325
0.00340312
0.00340298
0.00340284
0.00340271
0.00340257
0.00337541
0.00337528
0.00337515
0.00337501
0.00337488
0.00337474
0.00337461
0.00337447
0.00337433
0.00337421
0.00337407
0.00337393
0.0033738
0.00337366
0.00337353
0.00337339
0.00337326
0.00337312
0.00337299
0.00337285
0.00337272
0.00337258
0.00337245
0.00337231
0.00337218
0.00337204
0.00337191
0.00337177
0.00337164
0.0033715
0.00337137
0.00337123
0.00334435
0.00334421
0.00334408
0.00334395
0.00334381
0.00334367
0.00334355
0.00334341
0.00334327
0.00334315
0.00334301
0.00334288
0.00334274
0.00334261
0.00334247
0.00334234
0.00334221
0.00334208
0.00334194
0.00334181
0.00334167
0.00334154
0.00334141
0.00334127
0.00334114
0.003341
0.00334087
0.00334074
0.0033406
0.00334047
0.00334034
0.0033402
0.00331355
0.00331341
0.00331328
0.00331315
0.00331302
0.00331288
0.00331276
0.00331262
0.00331248
0.00331236
0.00331222
0.00331209
0.00331196
0.00331182
0.00331169
0.00331156
0.00331143
0.0033113
0.00331116
0.00331103
0.0033109
0.00331077
0.00331063
0.0033105
0.00331037
0.00331024
0.0033101
0.00330997
0.00330984
0.00330971
0.00330957
0.00330944
0.00328304
0.00328291
0.00328278
0.00328265
0.00328252
0.00328238
0.00328226
0.00328213
0.00328199
0.00328187
0.00328173
0.0032816
0.00328147
0.00328134
0.00328121
0.00328108
0.00328095
0.00328082
0.00328068
0.00328055
0.00328042
0.00328029
0.00328016
0.00328003
0.0032799
0.00327977
0.00327963
0.0032795
0.00327937
0.00327924
0.00327911
0.00327898
0.00325281
0.00325268
0.00325256
0.00325243
0.0032523
0.00325216
0.00325204
0.00325191
0.00325177
0.00325165
0.00325151
0.00325139
0.00325126
0.00325112
0.00325099
0.00325086
0.00325074
0.00325061
0.00325047
0.00325035
0.00325021
0.00325009
0.00324995
0.00324983
0.00324969
0.00324956
0.00324943
0.0032493
0.00324917
0.00324904
0.00324892
0.00324878
0.00322286
0.00322273
0.00322261
0.00322248
0.00322235
0.00322221
0.0032221
0.00322196
0.00322183
0.00322171
0.00322158
0.00322145
0.00322132
0.00322119
0.00322106
0.00322093
0.0032208
0.00322068
0.00322054
0.00322042
0.00322029
0.00322016
0.00322003
0.0032199
0.00321977
0.00321964
0.00321951
0.00321939
0.00321926
0.00321913
0.003219
0.00321887
0.00318041
0.00318029
0.00318016
0.00318004
0.00317991
0.00317977
0.00317966
0.00317953
0.0031794
0.00317927
0.00317914
0.00317902
0.00317889
0.00317876
0.00317863
0.00317851
0.00317838
0.00317826
0.00317813
0.003178
0.00317787
0.00317775
0.00317762
0.00317749
0.00317736
0.00317724
0.00317711
0.00317698
0.00317686
0.00317673
0.0031766
0.00317648
0.00299015
0.00299003
0.00298991
0.00298979
0.00298967
0.00298955
0.00298944
0.00298931
0.00298919
0.00298908
0.00298895
0.00298884
0.00298872
0.00298859
0.00298848
0.00298836
0.00298824
0.00298812
0.002988
0.00298788
0.00298776
0.00298764
0.00298752
0.0029874
0.00298728
0.00298716
0.00298704
0.00298692
0.0029868
0.00298668
0.00298656
0.00298645
0.00277686
0.00277675
0.00277664
0.00277653
0.00277642
0.00277631
0.0027762
0.00277609
0.00277598
0.00277587
0.00277576
0.00277565
0.00277554
0.00277542
0.00277531
0.0027752
0.00277509
0.00277498
0.00277487
0.00277476
0.00277465
0.00277454
0.00277442
0.00277431
0.0027742
0.00277409
0.00277398
0.00277387
0.00277376
0.00277365
0.00277354
0.00277343
0.0025788
0.0025787
0.00257859
0.00257849
0.00257839
0.00257828
0.00257819
0.00257808
0.00257797
0.00257787
0.00257777
0.00257767
0.00257756
0.00257746
0.00257736
0.00257725
0.00257715
0.00257705
0.00257694
0.00257684
0.00257674
0.00257664
0.00257653
0.00257643
0.00257633
0.00257622
0.00257612
0.00257602
0.00257591
0.00257581
0.00257571
0.0025756
0.00239486
0.00239477
0.00239467
0.00239458
0.00239448
0.00239438
0.00239429
0.00239419
0.00239409
0.002394
0.0023939
0.00239381
0.00239371
0.00239362
0.00239352
0.00239343
0.00239333
0.00239324
0.00239314
0.00239304
0.00239295
0.00239285
0.00239276
0.00239266
0.00239256
0.00239247
0.00239237
0.00239228
0.00239218
0.00239209
0.00239199
0.00239189
0.00222404
0.00222396
0.00222387
0.00222378
0.00222369
0.0022236
0.00222351
0.00222342
0.00222333
0.00222325
0.00222315
0.00222307
0.00222298
0.00222289
0.0022228
0.00222271
0.00222262
0.00222253
0.00222244
0.00222236
0.00222227
0.00222218
0.00222209
0.002222
0.00222191
0.00222182
0.00222173
0.00222164
0.00222156
0.00222147
0.00222138
0.00222129
0.0020654
0.00206532
0.00206523
0.00206515
0.00206507
0.00206498
0.00206491
0.00206482
0.00206474
0.00206466
0.00206457
0.00206449
0.00206441
0.00206432
0.00206424
0.00206416
0.00206408
0.002064
0.00206391
0.00206383
0.00206375
0.00206366
0.00206358
0.0020635
0.00206342
0.00206333
0.00206325
0.00206317
0.00206309
0.002063
0.00206292
0.00206284
0.00191808
0.00191801
0.00191793
0.00191785
0.00191778
0.0019177
0.00191763
0.00191755
0.00191747
0.00191739
0.00191732
0.00191724
0.00191716
0.00191708
0.00191701
0.00191693
0.00191686
0.00191678
0.0019167
0.00191663
0.00191655
0.00191647
0.0019164
0.00191632
0.00191624
0.00191617
0.00191609
0.00191601
0.00191594
0.00191586
0.00191578
0.00191571
0.00178126
0.00178119
0.00178112
0.00178105
0.00178098
0.0017809
0.00178084
0.00178076
0.00178069
0.00178062
0.00178055
0.00178048
0.00178041
0.00178033
0.00178026
0.00178019
0.00178012
0.00178005
0.00177998
0.00177991
0.00177984
0.00177977
0.00177969
0.00177962
0.00177955
0.00177948
0.00177941
0.00177934
0.00177927
0.0017792
0.00177913
0.00177905
0.00165421
0.00165415
0.00165408
0.00165402
0.00165395
0.00165388
0.00165382
0.00165375
0.00165369
0.00165362
0.00165355
0.00165349
0.00165342
0.00165335
0.00165329
0.00165322
0.00165316
0.00165309
0.00165302
0.00165296
0.00165289
0.00165283
0.00165276
0.0016527
0.00165263
0.00165256
0.0016525
0.00165243
0.00165236
0.0016523
0.00165223
0.00165217
0.00153622
0.00153616
0.0015361
0.00153604
0.00153597
0.00153591
0.00153585
0.00153579
0.00153573
0.00153567
0.0015356
0.00153554
0.00153548
0.00153542
0.00153536
0.0015353
0.00153524
0.00153518
0.00153511
0.00153505
0.00153499
0.00153493
0.00153487
0.00153481
0.00153474
0.00153468
0.00153462
0.00153456
0.0015345
0.00153444
0.00153438
0.00153431
0.00142664
0.00142659
0.00142653
0.00142648
0.00142642
0.00142636
0.00142631
0.00142625
0.00142619
0.00142613
0.00142608
0.00142602
0.00142596
0.0014259
0.00142585
0.00142579
0.00142573
0.00142568
0.00142562
0.00142556
0.00142551
0.00142545
0.00142539
0.00142533
0.00142528
0.00142522
0.00142516
0.00142511
0.00142505
0.00142499
0.00142494
0.00142488
0.00132488
0.00132483
0.00132478
0.00132472
0.00132467
0.00132461
0.00132457
0.00132451
0.00132446
0.00132441
0.00132435
0.0013243
0.00132425
0.00132419
0.00132414
0.00132409
0.00132404
0.00132398
0.00132393
0.00132388
0.00132382
0.00132377
0.00132372
0.00132366
0.00132361
0.00132356
0.00132351
0.00132345
0.0013234
0.00132335
0.00132329
0.00132324
0.00123038
0.00123033
0.00123028
0.00123023
0.00123018
0.00123013
0.00123008
0.00123003
0.00122998
0.00122994
0.00122989
0.00122984
0.00122979
0.00122974
0.00122969
0.00122964
0.00122959
0.00122954
0.00122949
0.00122944
0.00122939
0.00122935
0.0012293
0.00122925
0.0012292
0.00122915
0.0012291
0.00122905
0.001229
0.00122895
0.0012289
0.00122885
0.00114262
0.00114258
0.00114253
0.00114248
0.00114244
0.00114239
0.00114235
0.0011423
0.00114225
0.00114221
0.00114216
0.00114212
0.00114207
0.00114203
0.00114198
0.00114194
0.00114189
0.00114185
0.0011418
0.00114175
0.00114171
0.00114166
0.00114162
0.00114157
0.00114152
0.00114148
0.00114143
0.00114139
0.00114134
0.0011413
0.00114125
0.00114121
0.00106112
0.00106107
0.00106103
0.00106099
0.00106095
0.0010609
0.00106086
0.00106082
0.00106078
0.00106074
0.00106069
0.00106065
0.00106061
0.00106056
0.00106052
0.00106048
0.00106044
0.0010604
0.00106035
0.00106031
0.00106027
0.00106023
0.00106018
0.00106014
0.0010601
0.00106006
0.00106001
0.00105997
0.00105993
0.00105989
0.00105984
0.0010598
0.000985437
0.000985398
0.000985359
0.00098532
0.000985281
0.000985239
0.000985203
0.000985162
0.000985122
0.000985084
0.000985043
0.000985004
0.000984965
0.000984925
0.000984886
0.000984847
0.000984808
0.000984768
0.000984728
0.00098469
0.00098465
0.000984611
0.000984571
0.000984532
0.000984492
0.000984453
0.000984413
0.000984374
0.000984335
0.000984295
0.000984256
0.000984217
0.000915144
0.000915108
0.000915071
0.000915035
0.000914999
0.00091496
0.000914926
0.000914889
0.000914851
0.000914816
0.000914778
0.000914742
0.000914706
0.000914668
0.000914632
0.000914596
0.000914559
0.000914523
0.000914485
0.00091445
0.000914413
0.000914376
0.000914339
0.000914303
0.000914266
0.00091423
0.000914193
0.000914157
0.00091412
0.000914084
0.000914047
0.00091401
0.000849864
0.000849831
0.000849797
0.000849763
0.00084973
0.000849693
0.000849662
0.000849627
0.000849592
0.00084956
0.000849525
0.000849491
0.000849457
0.000849422
0.000849389
0.000849355
0.000849321
0.000849288
0.000849253
0.00084922
0.000849185
0.000849152
0.000849117
0.000849084
0.000849049
0.000849016
0.000848982
0.000848948
0.000848914
0.00084888
0.000848846
0.000848812
0.000789244
0.000789213
0.000789182
0.00078915
0.000789119
0.000789085
0.000789057
0.000789024
0.000788992
0.000788962
0.000788929
0.000788898
0.000788866
0.000788834
0.000788803
0.000788771
0.00078874
0.000788709
0.000788676
0.000788646
0.000788614
0.000788582
0.000788551
0.000788519
0.000788487
0.000788456
0.000788424
0.000788393
0.000788361
0.00078833
0.000788298
0.000788267
0.000732948
0.000732919
0.00073289
0.000732861
0.000732832
0.000732801
0.000732774
0.000732744
0.000732714
0.000732686
0.000732655
0.000732626
0.000732597
0.000732567
0.000732538
0.000732509
0.00073248
0.000732451
0.000732421
0.000732392
0.000732363
0.000732334
0.000732304
0.000732275
0.000732245
0.000732216
0.000732187
0.000732158
0.000732128
0.000732099
0.00073207
0.00073204
0.000680678
0.000680651
0.000680624
0.000680597
0.00068057
0.000680541
0.000680516
0.000680488
0.00068046
0.000680434
0.000680406
0.000680379
0.000680352
0.000680324
0.000680297
0.00068027
0.000680243
0.000680216
0.000680188
0.000680162
0.000680134
0.000680107
0.00068008
0.000680053
0.000680025
0.000679998
0.000679971
0.000679944
0.000679917
0.000679889
0.000679862
0.000679835
0.000632117
0.000632092
0.000632067
0.000632042
0.000632017
0.00063199
0.000631966
0.00063194
0.000631914
0.00063189
0.000631864
0.000631839
0.000631814
0.000631788
0.000631763
0.000631738
0.000631713
0.000631688
0.000631662
0.000631637
0.000631612
0.000631587
0.000631561
0.000631536
0.00063151
0.000631485
0.00063146
0.000631435
0.00063141
0.000631384
0.000631359
0.000631334
0.000587031
0.000587008
0.000586985
0.000586962
0.000586938
0.000586913
0.000586892
0.000586868
0.000586843
0.000586821
0.000586797
0.000586774
0.00058675
0.000586726
0.000586703
0.00058668
0.000586656
0.000586633
0.000586609
0.000586586
0.000586562
0.000586539
0.000586515
0.000586492
0.000586468
0.000586445
0.000586422
0.000586398
0.000586375
0.000586351
0.000586328
0.000586304
0.000545161
0.00054514
0.000545118
0.000545096
0.000545075
0.000545051
0.000545032
0.000545009
0.000544987
0.000544966
0.000544943
0.000544922
0.0005449
0.000544878
0.000544856
0.000544835
0.000544813
0.000544791
0.000544769
0.000544748
0.000544726
0.000544704
0.000544682
0.00054466
0.000544638
0.000544617
0.000544595
0.000544573
0.000544551
0.00054453
0.000544508
0.000544486
0.000506273
0.000506253
0.000506233
0.000506213
0.000506193
0.000506171
0.000506153
0.000506132
0.000506111
0.000506092
0.000506071
0.000506051
0.000506031
0.00050601
0.00050599
0.00050597
0.00050595
0.00050593
0.000505909
0.000505889
0.000505869
0.000505848
0.000505828
0.000505808
0.000505787
0.000505767
0.000505747
0.000505727
0.000505707
0.000505686
0.000505666
0.000505646
0.000470162
0.000470143
0.000470125
0.000470106
0.000470087
0.000470067
0.00047005
0.000470031
0.000470011
0.000469993
0.000469974
0.000469955
0.000469937
0.000469917
0.000469899
0.00046988
0.000469862
0.000469843
0.000469824
0.000469805
0.000469786
0.000469768
0.000469749
0.00046973
0.000469711
0.000469692
0.000469674
0.000469655
0.000469636
0.000469617
0.000469598
0.00046958
0.000436632
0.000436615
0.000436598
0.00043658
0.000436563
0.000436544
0.000436528
0.00043651
0.000436492
0.000436476
0.000436458
0.00043644
0.000436423
0.000436405
0.000436388
0.000436371
0.000436353
0.000436336
0.000436318
0.000436301
0.000436283
0.000436266
0.000436248
0.000436231
0.000436213
0.000436196
0.000436179
0.000436161
0.000436144
0.000436126
0.000436109
0.000436091
0.000405479
0.000405463
0.000405447
0.000405431
0.000405415
0.000405397
0.000405382
0.000405366
0.000405349
0.000405333
0.000405317
0.000405301
0.000405285
0.000405268
0.000405252
0.000405236
0.00040522
0.000405204
0.000405187
0.000405171
0.000405155
0.000405139
0.000405122
0.000405106
0.00040509
0.000405074
0.000405058
0.000405041
0.000405025
0.000405009
0.000404993
0.000404977
0.000376562
0.000376547
0.000376532
0.000376517
0.000376502
0.000376486
0.000376472
0.000376457
0.000376441
0.000376427
0.000376412
0.000376397
0.000376382
0.000376366
0.000376351
0.000376336
0.000376321
0.000376306
0.000376291
0.000376276
0.000376261
0.000376246
0.000376231
0.000376216
0.000376201
0.000376186
0.000376171
0.000376156
0.000376141
0.000376126
0.000376111
0.000376096
0.000349705
0.000349691
0.000349677
0.000349663
0.000349649
0.000349634
0.000349621
0.000349607
0.000349593
0.000349579
0.000349565
0.000349551
0.000349537
0.000349523
0.000349509
0.000349495
0.000349481
0.000349467
0.000349453
0.000349439
0.000349425
0.000349411
0.000349397
0.000349383
0.000349369
0.000349355
0.000349341
0.000349327
0.000349313
0.000349299
0.000349285
0.000349271
0.000324758
0.000324745
0.000324732
0.000324719
0.000324706
0.000324692
0.00032468
0.000324667
0.000324654
0.000324641
0.000324628
0.000324615
0.000324602
0.000324589
0.000324576
0.000324563
0.00032455
0.000324537
0.000324524
0.000324511
0.000324498
0.000324485
0.000324472
0.000324459
0.000324446
0.000324433
0.00032442
0.000324407
0.000324394
0.000324381
0.000324368
0.000324355
0.000301591
0.000301579
0.000301567
0.000301555
0.000301543
0.00030153
0.000301519
0.000301506
0.000301494
0.000301483
0.00030147
0.000301458
0.000301446
0.000301434
0.000301422
0.00030141
0.000301398
0.000301386
0.000301374
0.000301362
0.00030135
0.000301338
0.000301326
0.000301314
0.000301301
0.000301289
0.000301277
0.000301265
0.000301253
0.000301241
0.000301229
0.000301217
0.000311385
0.000311373
0.00031136
0.000311348
0.000311336
0.000311322
0.000311311
0.000311298
0.000311285
0.000311273
0.000311261
0.000311248
0.000311236
0.000311223
0.000311211
0.000311198
0.000311186
0.000311174
0.000311161
0.000311149
0.000311136
0.000311124
0.000311111
0.000311099
0.000311086
0.000311074
0.000311061
0.000311049
0.000311037
0.000311024
0.000311012
0.000310999
0.00036236
0.000362345
0.000362331
0.000362317
0.000362302
0.000362287
0.000362274
0.000362259
0.000362244
0.00036223
0.000362215
0.000362201
0.000362186
0.000362171
0.000362157
0.000362143
0.000362128
0.000362114
0.000362099
0.000362085
0.00036207
0.000362056
0.000362041
0.000362027
0.000362012
0.000361998
0.000361983
0.000361969
0.000361954
0.00036194
0.000361925
0.000361911
0.000421685
0.000421668
0.000421651
0.000421634
0.000421618
0.0004216
0.000421584
0.000421567
0.00042155
0.000421533
0.000421516
0.000421499
0.000421483
0.000421465
0.000421449
0.000421432
0.000421415
0.000421398
0.000421381
0.000421365
0.000421348
0.000421331
0.000421314
0.000421297
0.00042128
0.000421263
0.000421246
0.00042123
0.000421213
0.000421196
0.000421179
0.000421162
0.000490701
0.000490682
0.000490662
0.000490643
0.000490623
0.000490602
0.000490584
0.000490564
0.000490544
0.000490525
0.000490505
0.000490486
0.000490466
0.000490446
0.000490426
0.000490407
0.000490387
0.000490368
0.000490348
0.000490329
0.000490309
0.000490289
0.00049027
0.00049025
0.00049023
0.000490211
0.000490191
0.000490172
0.000490152
0.000490132
0.000490113
0.000490093
0.000571031
0.000571008
0.000570985
0.000570963
0.00057094
0.000570916
0.000570895
0.000570871
0.000570848
0.000570826
0.000570803
0.00057078
0.000570757
0.000570734
0.000570711
0.000570689
0.000570666
0.000570643
0.00057062
0.000570598
0.000570574
0.000570552
0.000570529
0.000570506
0.000570483
0.00057046
0.000570438
0.000570415
0.000570392
0.000570369
0.000570346
0.000570323
0.000664519
0.000664493
0.000664466
0.00066444
0.000664414
0.000664385
0.000664361
0.000664333
0.000664306
0.000664281
0.000664253
0.000664227
0.000664201
0.000664173
0.000664147
0.000664121
0.000664094
0.000664068
0.000664041
0.000664015
0.000663988
0.000663962
0.000663935
0.000663908
0.000663882
0.000663855
0.000663829
0.000663802
0.000663776
0.000663749
0.000663722
0.000663696
0.000773272
0.000773241
0.00077321
0.00077318
0.000773149
0.000773116
0.000773088
0.000773056
0.000773024
0.000772994
0.000772963
0.000772932
0.000772901
0.000772869
0.000772839
0.000772808
0.000772778
0.000772747
0.000772715
0.000772685
0.000772654
0.000772623
0.000772592
0.000772561
0.00077253
0.000772499
0.000772468
0.000772437
0.000772407
0.000772376
0.000772345
0.000772314
0.000899879
0.000899844
0.000899808
0.000899772
0.000899737
0.000899698
0.000899665
0.000899628
0.000899591
0.000899557
0.00089952
0.000899484
0.000899449
0.000899412
0.000899376
0.00089934
0.000899304
0.000899269
0.000899232
0.000899197
0.00089916
0.000899125
0.000899088
0.000899053
0.000899016
0.000898981
0.000898945
0.000898909
0.000898873
0.000898837
0.000898801
0.000898765
0.00104716
0.00104712
0.00104707
0.00104703
0.00104699
0.00104695
0.00104691
0.00104686
0.00104682
0.00104678
0.00104674
0.0010467
0.00104666
0.00104661
0.00104657
0.00104653
0.00104649
0.00104645
0.0010464
0.00104636
0.00104632
0.00104628
0.00104624
0.00104619
0.00104615
0.00104611
0.00104607
0.00104603
0.00104599
0.00104594
0.0010459
0.00104586
0.00121859
0.00121854
0.00121849
0.00121844
0.0012184
0.00121834
0.0012183
0.00121825
0.0012182
0.00121815
0.0012181
0.00121805
0.00121801
0.00121796
0.00121791
0.00121786
0.00121781
0.00121776
0.00121771
0.00121766
0.00121762
0.00121757
0.00121752
0.00121747
0.00121742
0.00121737
0.00121732
0.00121727
0.00121723
0.00121718
0.00121713
0.00121708
0.00141807
0.00141802
0.00141796
0.0014179
0.00141785
0.00141779
0.00141773
0.00141768
0.00141762
0.00141756
0.0014175
0.00141745
0.00141739
0.00141733
0.00141728
0.00141722
0.00141717
0.00141711
0.00141705
0.001417
0.00141694
0.00141688
0.00141682
0.00141677
0.00141671
0.00141666
0.0014166
0.00141654
0.00141649
0.00141643
0.00141637
0.00141632
0.00165019
0.00165012
0.00165006
0.00164999
0.00164993
0.00164986
0.0016498
0.00164973
0.00164966
0.0016496
0.00164953
0.00164946
0.0016494
0.00164933
0.00164927
0.0016492
0.00164913
0.00164907
0.001649
0.00164894
0.00164887
0.00164881
0.00164874
0.00164867
0.00164861
0.00164854
0.00164847
0.00164841
0.00164834
0.00164828
0.00164821
0.00164815
0.00192031
0.00192023
0.00192016
0.00192008
0.00192
0.00191992
0.00191985
0.00191977
0.00191969
0.00191962
0.00191954
0.00191947
0.00191939
0.00191931
0.00191923
0.00191916
0.00191908
0.00191901
0.00191893
0.00191885
0.00191878
0.0019187
0.00191862
0.00191855
0.00191847
0.00191839
0.00191831
0.00191824
0.00191816
0.00191808
0.00191801
0.00191793
0.00223466
0.00223457
0.00223448
0.00223439
0.0022343
0.00223421
0.00223413
0.00223403
0.00223394
0.00223386
0.00223376
0.00223368
0.00223359
0.0022335
0.00223341
0.00223332
0.00223323
0.00223314
0.00223305
0.00223296
0.00223287
0.00223278
0.00223269
0.0022326
0.00223251
0.00223243
0.00223234
0.00223225
0.00223216
0.00223207
0.00223198
0.00223189
0.00260047
0.00260036
0.00260026
0.00260016
0.00260005
0.00259994
0.00259985
0.00259974
0.00259963
0.00259953
0.00259943
0.00259932
0.00259922
0.00259911
0.00259901
0.00259891
0.0025988
0.0025987
0.00259859
0.00259849
0.00259839
0.00259828
0.00259818
0.00259808
0.00259797
0.00259787
0.00259776
0.00259766
0.00259756
0.00259745
0.00259735
0.00259724
0.00302616
0.00302604
0.00302592
0.0030258
0.00302568
0.00302555
0.00302544
0.00302531
0.00302519
0.00302507
0.00302495
0.00302483
0.00302471
0.00302458
0.00302446
0.00302434
0.00302422
0.0030241
0.00302398
0.00302386
0.00302374
0.00302362
0.0030235
0.00302338
0.00302325
0.00302313
0.00302301
0.00302289
0.00302277
0.00302265
0.00302253
0.00302241
0.0035215
0.00352136
0.00352122
0.00352108
0.00352094
0.00352079
0.00352066
0.00352052
0.00352037
0.00352024
0.00352009
0.00351995
0.00351981
0.00351967
0.00351953
0.00351939
0.00351925
0.00351911
0.00351896
0.00351883
0.00351869
0.00351855
0.0035184
0.00351826
0.00351812
0.00351798
0.00351784
0.0035177
0.00351756
0.00351742
0.00351728
0.00351714
0.00409797
0.00409781
0.00409765
0.00409748
0.00409732
0.00409715