# p  FACE_DATA 192
# x y z  p
-0.852065 0 0.084 34.6834
-0.758669 0 0.084 32.5951
-0.666528 0 0.084 31.9055
-0.577755 0 0.084 31.5683
-0.494161 0 0.084 31.4163
-0.417123 0 0.084 31.7163
-0.347527 0 0.084 32.9164
-0.285777 0 0.084 35.6167
-0.231861 0 0.084 40.5862
-0.185442 0 0.084 48.5494
-0.145958 0 0.084 60.0513
-0.112718 0 0.084 75.2366
-0.0849786 0 0.084 93.9548
-0.0619968 0 0.084 115.442
-0.0430716 0 0.084 139.243
-0.0275644 0 0.084 162.605
-0.0149098 0 0.084 187.35
-0.00461741 0 0.084 196.837
0.00419702 0.000766028 0.084 221.955
0.0125357 0.00316131 0.084 223.312
0.020697 0.00703868 0.084 216.088
0.0287378 0.0118384 0.084 170.42
0.0369106 0.0169584 0.084 82.7621
0.0454949 0.0218397 0.084 -38.5156
0.0545791 0.0261932 0.084 -117.928
0.0640348 0.0301041 0.084 -167.107
0.073747 0.0336505 0.084 -235.529
0.0836619 0.0367804 0.084 -289.274
0.0937079 0.0394943 0.084 -317.265
0.103801 0.0418542 0.084 -337.236
0.113865 0.0439189 0.084 -353.272
0.123836 0.0457307 0.084 -367.564
0.133659 0.0473208 0.084 -380.144
0.143283 0.0487086 0.084 -393.742
0.152668 0.0499022 0.084 -406.153
0.161776 0.0509097 0.084 -416.562
0.170574 0.0517418 0.084 -425.244
0.179037 0.0524109 0.084 -432.389
0.187142 0.0529292 0.084 -438.251
0.194874 0.0533091 0.084 -442.369
0.202221 0.0535615 0.084 -445.415
0.209178 0.0537006 0.084 -445.214
0.215742 0.0537414 0.084 -445.155
0.221915 0.0536951 0.084 -443.448
0.227704 0.0535737 0.084 -440.357
0.233115 0.0533864 0.084 -436.738
0.238162 0.0531431 0.084 -430.375
0.242854 0.0528508 0.084 -424.727
0.247208 0.0525148 0.084 -415.116
0.251238 0.0521445 0.084 -403.35
0.254961 0.0517487 0.084 -390.609
0.258394 0.0513336 0.084 -376.2
0.261552 0.0509022 0.084 -360.767
0.264452 0.0504548 0.084 -342.297
0.26711 0.0499959 0.084 -319.36
0.269543 0.0495338 0.084 -294.327
0.271766 0.0490638 0.084 -272.037
0.273786 0.0485651 0.084 -247.007
0.275654 0.048005 0.084 -222.556
0.277448 0.047345 0.084 -207.648
0.279191 0.0465595 0.084 -201.297
0.280869 0.0456436 0.084 -198.711
0.282484 0.0446191 0.084 -196.647
0.284048 0.043518 0.084 -195.345
0.285572 0.0423617 0.084 -194.2
0.287066 0.0411661 0.084 -193.398
0.28854 0.0399453 0.084 -192.743
0.290003 0.0387101 0.084 -192.271
0.291459 0.0374674 0.084 -191.875
0.292915 0.0362241 0.084 -191.561
0.294379 0.034989 0.084 -191.349
0.295851 0.0337636 0.084 -191.186
0.297328 0.0325435 0.084 -191.02
0.298809 0.0313277 0.084 -190.871
0.300298 0.0301204 0.084 -190.747
0.301799 0.0289276 0.084 -190.648
0.303316 0.0277545 0.084 -190.589
0.30485 0.0266025 0.084 -190.542
0.306399 0.025471 0.084 -190.508
0.307964 0.0243595 0.084 -190.469
0.309545 0.0232695 0.084 -190.443
0.311143 0.0222041 0.084 -190.425
0.312759 0.0211654 0.084 -190.419
0.314394 0.0201548 0.084 -190.421
0.316048 0.0191738 0.084 -190.43
0.31772 0.0182234 0.084 -190.45
0.319411 0.0173045 0.084 -190.471
0.32112 0.0164182 0.084 -190.508
0.322847 0.0155651 0.084 -190.543
0.324591 0.0147463 0.084 -190.598
0.326353 0.0139622 0.084 -190.658
0.32813 0.0132125 0.084 -190.728
0.329922 0.0124967 0.084 -190.807
0.331728 0.0118135 0.084 -190.892
0.333547 0.0111615 0.084 -190.971
0.335378 0.0105398 0.084 -191.058
0.337219 0.00994805 0.084 -191.148
0.339071 0.00938518 0.084 -191.239
0.340933 0.00884961 0.084 -191.337
0.342802 0.00833907 0.084 -191.411
0.344679 0.00785224 0.084 -191.492
0.346564 0.00738844 0.084 -191.561
0.348455 0.00694656 0.084 -191.63
0.350352 0.00652531 0.084 -191.691
0.352254 0.00612293 0.084 -191.742
0.354162 0.00573753 0.084 -191.775
0.356074 0.00536753 0.084 -191.79
0.35799 0.00501177 0.084 -191.782
0.35991 0.00466962 0.084 -191.763
0.361834 0.00434056 0.084 -191.724
0.363762 0.00402386 0.084 -191.669
0.365693 0.00371876 0.084 -191.597
0.367628 0.00342427 0.084 -191.497
0.369566 0.00313945 0.084 -191.369
0.371506 0.00286376 0.084 -191.212
0.37345 0.00259699 0.084 -191.02
0.375397 0.00233956 0.084 -190.806
0.377347 0.00209211 0.084 -190.568
0.3793 0.00185491 0.084 -190.312
0.381256 0.00162794 0.084 -190.01
0.383215 0.00141185 0.084 -189.687
0.385178 0.00120824 0.084 -189.336
0.387143 0.00101907 0.084 -188.996
0.389113 0.00084588 0.084 -188.628
0.391086 0.000690183 0.084 -188.281
0.393062 0.000553449 0.084 -187.917
0.395042 0.000436888 0.084 -187.592
0.397025 0.000341007 0.084 -187.257
0.399011 0.000265448 0.084 -186.95
0.400999 0.000209332 0.084 -186.633
0.402991 0.000170833 0.084 -186.347
0.404985 0.000145822 0.084 -186.048
0.406981 0.000127167 0.084 -185.622
0.408979 0.000109171 0.084 -185.053
0.41098 9.08014e-05 0.084 -184.43
0.412983 7.22229e-05 0.084 -183.777
0.414989 5.09948e-05 0.084 -183.021
0.416997 2.61402e-05 0.084 -181.994
0.419008 6.53116e-06 0.084 -181.202
0.421022 0 0.084 -180.626
0.423046 0 0.084 -179.788
0.425094 0 0.084 -178.92
0.427182 0 0.084 -177.954
0.429327 0 0.084 -176.926
0.431546 0 0.084 -175.806
0.433856 0 0.084 -174.595
0.436275 0 0.084 -173.27
0.438823 0 0.084 -171.818
0.44152 0 0.084 -170.215
0.444387 0 0.084 -168.435
0.447447 0 0.084 -166.456
0.450723 0 0.084 -164.227
0.454243 0 0.084 -161.736
0.458033 0 0.084 -158.909
0.462124 0 0.084 -155.713
0.466548 0 0.084 -152.071
0.471341 0 0.084 -147.948
0.476539 0 0.084 -143.226
0.482184 0 0.084 -137.913
0.488321 0 0.084 -131.838
0.494998 0 0.084 -124.958
0.502268 0 0.084 -117.151
0.510189 0 0.084 -108.393
0.518823 0 0.084 -98.6623
0.528239 0 0.084 -88.0427
0.538511 0 0.084 -76.6672
0.54972 0 0.084 -64.8135
0.561955 0 0.084 -52.8282
0.575312 0 0.084 -41.1443
0.589898 0 0.084 -30.2064
0.605828 0 0.084 -20.4578
0.623227 0 0.084 -12.2816
0.642233 0 0.084 -5.89365
0.662998 0 0.084 -1.29234
0.685684 0 0.084 1.65301
0.710471 0 0.084 3.24257
0.737556 0 0.084 3.84485
0.767152 0 0.084 3.72847
0.799494 0 0.084 3.20142
0.834838 0 0.084 2.48084
0.873462 0 0.084 1.78428
0.915673 0 0.084 1.19181
0.961805 0 0.084 0.729867
1.01222 0 0.084 0.368481
1.06732 0 0.084 0.141765
1.12754 0 0.084 -0.00592245
1.19336 0 0.084 -0.0392354
1.26529 0 0.084 -0.0659728
1.34391 0 0.084 -0.0597855
1.42984 0 0.084 -0.0911952
1.52375 0 0.084 -0.52621
1.6264 0 0.084 0.115971
