/*--------------------------------*- C++ -*----------------------------------*\
| =========                 |                                                 |
| \\      /  F ield         | OpenFOAM: The Open Source CFD Toolbox           |
|  \\    /   O peration     | Version:  2212                                  |
|   \\  /    A nd           | Website:  www.openfoam.com                      |
|    \\/     M anipulation  |                                                 |
\*---------------------------------------------------------------------------*/
FoamFile
{
    version     2.0;
    format      ascii;
    arch        "LSB;label=32;scalar=64";
    class       volScalarField;
    location    "1";
    object      C_mu_eff;
}
// * * * * * * * * * * * * * * * * * * * * * * * * * * * * * * * * * * * * * //

dimensions      [0 0 0 0 0 0 0];

internalField   nonuniform List<scalar> 
3600
(
0.0900002
0.0900008
0.0900021
0.0900042
0.0900071
0.0900111
0.090016
0.0900215
0.0900274
0.0900333
0.0900389
0.0900439
0.0900485
0.0900525
0.0900562
0.0900595
0.0900627
0.0900657
0.0900686
0.0900714
0.0900742
0.0900769
0.0900795
0.090082
0.0900845
0.0900869
0.0900892
0.0900914
0.0900935
0.0900955
0.0900974
0.0900992
0.0901008
0.0901023
0.0901036
0.0901048
0.0901059
0.0901067
0.0901074
0.090108
0.0901085
0.0901088
0.090109
0.0901091
0.090109
0.0901089
0.0901086
0.0901082
0.0901077
0.090107
0.0901061
0.0901051
0.0901038
0.0901022
0.0901004
0.0900982
0.0900956
0.090093
0.0900907
0.0900893
0.0900008
0.0900245
0.0900858
0.0901635
0.0902688
0.0904063
0.0905734
0.0907593
0.0909515
0.0911381
0.0913113
0.091467
0.0916051
0.0917275
0.0918372
0.0919372
0.0920301
0.0921176
0.0922011
0.0922814
0.092359
0.0924337
0.0925057
0.0925751
0.0926419
0.0927061
0.0927675
0.092826
0.0928815
0.0929338
0.0929829
0.0930284
0.0930703
0.0931083
0.0931422
0.093172
0.0931977
0.0932194
0.0932373
0.0932517
0.0932627
0.0932705
0.0932755
0.0932776
0.0932768
0.0932732
0.0932665
0.0932566
0.0932432
0.0932261
0.0932046
0.0931783
0.093146
0.0931067
0.0930593
0.0930028
0.0929381
0.0928697
0.0928085
0.0927707
0.0900021
0.0900858
0.0906628
0.0916232
0.0926013
0.0936205
0.0946517
0.0956092
0.0964413
0.097129
0.0976788
0.09811
0.0984467
0.0987109
0.0989211
0.0990912
0.0992313
0.0993482
0.0994467
0.09953
0.0996004
0.0996597
0.0997093
0.0997504
0.0997841
0.0998112
0.0998326
0.099849
0.0998611
0.0998695
0.0998748
0.0998776
0.0998785
0.0998778
0.099876
0.0998737
0.099871
0.0998683
0.0998658
0.0998636
0.0998617
0.0998604
0.0998595
0.0998591
0.0998593
0.0998599
0.0998611
0.0998628
0.0998649
0.0998674
0.0998702
0.0998731
0.0998758
0.0998778
0.0998785
0.0998764
0.0998703
0.0998591
0.0998448
0.0998339
0.0900042
0.0901635
0.0916232
0.0953771
0.0983693
0.099581
0.0998771
0.0997582
0.0994367
0.0990121
0.0985407
0.0980581
0.0975873
0.0971416
0.0967267
0.0963431
0.0959887
0.0956597
0.0953526
0.095064
0.094791
0.094533
0.0942888
0.0940575
0.0938389
0.0936325
0.0934381
0.0932557
0.093085
0.0929262
0.0927794
0.0926446
0.0925222
0.0924122
0.0923151
0.0922307
0.0921587
0.0920987
0.0920501
0.0920116
0.0919825
0.0919622
0.0919497
0.0919448
0.0919473
0.0919577
0.0919757
0.0920025
0.0920384
0.0920847
0.0921431
0.0922157
0.0923058
0.0924175
0.0925558
0.0927249
0.0929242
0.0931405
0.0933384
0.0934625
0.0900071
0.0902688
0.0926013
0.0983693
0.0994098
0.0965694
0.0944721
0.093316
0.0925878
0.0919907
0.0914087
0.0908073
0.0902011
0.089613
0.0890646
0.0885669
0.0881238
0.0877313
0.0873835
0.0870296
0.0866451
0.0863013
0.0859914
0.0857111
0.0854572
0.0852265
0.0850165
0.0848254
0.0846517
0.0844943
0.0843522
0.0842249
0.0841117
0.0840122
0.0839263
0.0838535
0.0837931
0.083744
0.083706
0.0836773
0.0836568
0.0836438
0.0836373
0.0836362
0.0836405
0.0836521
0.083668
0.0836909
0.083721
0.0837595
0.0838086
0.0838711
0.0839509
0.0840538
0.0841876
0.0843603
0.0845754
0.0848213
0.0850564
0.0852083
0.0900111
0.0904063
0.0936205
0.099581
0.0965693
0.0900491
0.0863966
0.0851143
0.085158
0.0854782
0.0856436
0.0855329
0.0852009
0.0847249
0.0841976
0.0836803
0.0832087
0.0827966
0.0824435
0.0821409
0.0818801
0.0816558
0.0814597
0.0812874
0.0811356
0.0810008
0.0808808
0.0807734
0.080677
0.0805913
0.080515
0.0804477
0.080389
0.0803386
0.0802962
0.0802615
0.0802341
0.0802136
0.0801995
0.0801908
0.0801862
0.0801861
0.0801883
0.0801934
0.0801996
0.0802101
0.080221
0.0802342
0.0802508
0.0802714
0.0802975
0.0803316
0.0803763
0.0804368
0.0805197
0.0806313
0.0807753
0.0809431
0.0811044
0.0812084
0.090016
0.0905734
0.0946517
0.0998771
0.0944721
0.0863966
0.081299
0.0800077
0.0803682
0.0812154
0.0819956
0.0824854
0.0826543
0.0825487
0.0822787
0.0819232
0.0815489
0.0811967
0.0808858
0.0806221
0.0804054
0.080226
0.0800755
0.0799497
0.079844
0.0797535
0.0796765
0.0796099
0.0795522
0.0795026
0.0794599
0.0794236
0.0793934
0.0793688
0.0793494
0.0793352
0.0793257
0.0793211
0.0793207
0.079324
0.0793294
0.0793381
0.079347
0.0793578
0.0793671
0.0793799
0.079391
0.0794022
0.0794145
0.079429
0.0794468
0.07947
0.0795017
0.0795462
0.0796095
0.0796965
0.0798091
0.0799378
0.0800579
0.0801331
0.0900215
0.0907593
0.0956092
0.0997582
0.093316
0.0851143
0.0800076
0.0784156
0.0785569
0.0793939
0.0803679
0.0811842
0.0817155
0.0819474
0.0819343
0.0817584
0.0814922
0.0811963
0.0809096
0.0806517
0.080431
0.080247
0.0800949
0.0799714
0.0798712
0.0797893
0.079723
0.0796685
0.0796235
0.0795873
0.0795575
0.0795341
0.0795165
0.0795035
0.079495
0.0794907
0.0794903
0.0794944
0.0795016
0.0795122
0.0795245
0.0795396
0.0795547
0.0795713
0.0795854
0.0796028
0.0796177
0.079632
0.0796462
0.0796624
0.0796816
0.0797055
0.0797381
0.0797834
0.0798468
0.0799314
0.0800355
0.0801467
0.0802423
0.0802977
0.0900274
0.0909515
0.0964413
0.0994367
0.0925878
0.0851577
0.0803681
0.0785567
0.0783522
0.0789287
0.0798175
0.0807252
0.0814688
0.0819626
0.082195
0.0822108
0.0820691
0.0818411
0.0815768
0.0813118
0.0810659
0.0808506
0.0806669
0.080516
0.0803928
0.0802931
0.0802143
0.0801513
0.0801012
0.0800631
0.0800336
0.0800117
0.0799968
0.0799878
0.0799832
0.0799832
0.0799871
0.0799961
0.0800079
0.0800235
0.0800412
0.0800618
0.0800833
0.080106
0.0801268
0.0801505
0.0801719
0.0801932
0.0802138
0.080237
0.0802639
0.0802961
0.0803383
0.0803947
0.0804695
0.0805633
0.0806697
0.0807714
0.0808475
0.080885
0.0900333
0.0911381
0.0971291
0.0990121
0.0919906
0.0854779
0.0812153
0.0793939
0.0789287
0.0791811
0.07982
0.0806249
0.0814204
0.082077
0.0825223
0.0827419
0.0827628
0.0826376
0.0824232
0.0821659
0.0818993
0.0816458
0.0814172
0.0812209
0.0810552
0.0809183
0.0808094
0.0807216
0.0806533
0.0806011
0.0805625
0.0805344
0.0805164
0.0805069
0.0805027
0.0805047
0.0805108
0.0805235
0.0805391
0.0805592
0.080582
0.0806083
0.0806368
0.0806667
0.0806958
0.0807272
0.0807577
0.080788
0.0808185
0.0808523
0.0808909
0.0809364
0.0809934
0.0810664
0.0811581
0.0812654
0.081376
0.0814676
0.081522
0.0815401
0.0900389
0.0913113
0.0976788
0.0985407
0.0914087
0.0856436
0.0819956
0.080368
0.0798177
0.07982
0.0801647
0.0807383
0.0814287
0.0821165
0.0826974
0.0831028
0.0833108
0.0833367
0.0832219
0.083012
0.0827523
0.0824751
0.0822054
0.0819579
0.081739
0.081552
0.0813981
0.081271
0.0811718
0.0810943
0.0810376
0.0809963
0.0809706
0.0809562
0.0809495
0.0809521
0.0809596
0.080976
0.0809955
0.0810206
0.081049
0.0810821
0.0811185
0.0811571
0.0811958
0.0812368
0.0812785
0.0813199
0.0813631
0.0814101
0.0814636
0.0815257
0.0816012
0.081694
0.0818047
0.0819257
0.0820383
0.0821155
0.0821438
0.0821404
0.0900439
0.091467
0.0981101
0.0980581
0.0908071
0.0855329
0.0824855
0.0811845
0.0807254
0.080625
0.0807383
0.0810449
0.0815212
0.0821037
0.0827001
0.0832187
0.0835931
0.0837931
0.0838251
0.0837177
0.0835111
0.0832462
0.0829567
0.0826686
0.0823983
0.0821552
0.081946
0.0817688
0.0816264
0.0815132
0.0814274
0.0813648
0.0813252
0.0813014
0.0812893
0.0812906
0.081299
0.0813198
0.0813435
0.0813745
0.0814099
0.0814508
0.081497
0.081546
0.0815959
0.0816481
0.0817032
0.0817575
0.0818156
0.0818784
0.0819493
0.0820303
0.0821264
0.0822402
0.0823697
0.0825017
0.0826113
0.0826681
0.0826661
0.0826391
0.0900485
0.0916051
0.0984467
0.0975873
0.0902011
0.085201
0.0826544
0.0817156
0.0814691
0.0814206
0.0814288
0.0815213
0.0817535
0.082137
0.0826282
0.0831493
0.0836171
0.0839659
0.0841608
0.0841984
0.0840984
0.0838957
0.083626
0.0833248
0.083018
0.0827244
0.0824583
0.0822242
0.0820284
0.0818678
0.0817428
0.0816502
0.0815871
0.081548
0.0815252
0.0815228
0.0815307
0.0815551
0.0815832
0.081621
0.0816647
0.0817149
0.0817726
0.0818336
0.0818964
0.0819617
0.082032
0.0821015
0.082176
0.0822573
0.0823473
0.0824491
0.0825668
0.0827014
0.0828475
0.0829862
0.0830863
0.0831168
0.0830813
0.0830299
0.0900525
0.0917275
0.0987109
0.0971416
0.0896132
0.0847252
0.0825492
0.0819478
0.0819631
0.0820773
0.0821168
0.0821037
0.082137
0.0822964
0.0826021
0.0830188
0.0834779
0.0839028
0.0842297
0.0844197
0.0844621
0.0843701
0.0841708
0.0838986
0.0835863
0.0832615
0.0829466
0.0826566
0.0824021
0.0821857
0.0820111
0.0818777
0.0817814
0.0817177
0.0816783
0.0816664
0.081671
0.0816965
0.0817291
0.0817731
0.0818254
0.0818866
0.0819568
0.0820317
0.082109
0.0821893
0.0822765
0.0823633
0.0824556
0.0825574
0.0826681
0.0827916
0.0829309
0.0830847
0.0832441
0.0833839
0.0834677
0.0834671
0.0833963
0.0833212
0.0900562
0.0918372
0.0989211
0.0967267
0.0890646
0.0841978
0.0822792
0.0819347
0.0821956
0.0825226
0.0826976
0.0827002
0.0826282
0.0826021
0.0827012
0.082945
0.0833018
0.0837097
0.084098
0.0844051
0.08459
0.0846364
0.084551
0.0843556
0.0840807
0.083758
0.0834174
0.0830826
0.0827732
0.0824985
0.0822668
0.0820817
0.0819413
0.0818423
0.0817774
0.0817493
0.0817444
0.0817668
0.0818011
0.0818504
0.0819118
0.081983
0.0820668
0.0821564
0.0822496
0.0823466
0.0824518
0.0825576
0.0826686
0.0827925
0.0829252
0.0830703
0.0832302
0.0834005
0.0835683
0.083703
0.0837643
0.0837295
0.0836236
0.0835262
0.0900595
0.0919372
0.0990912
0.0963431
0.0885669
0.0836806
0.0819235
0.0817586
0.082211
0.0827421
0.0831027
0.0832187
0.0831492
0.0830187
0.0829449
0.0829983
0.0831942
0.0835032
0.0838689
0.0842259
0.0845151
0.0846944
0.0847434
0.084663
0.0844705
0.0841929
0.0838615
0.0835073
0.0831568
0.0828291
0.082539
0.0822981
0.0821053
0.0819615
0.081863
0.0818089
0.0817877
0.0818
0.0818301
0.0818808
0.0819479
0.0820279
0.0821242
0.0822292
0.0823378
0.0824522
0.0825762
0.0827011
0.0828313
0.0829774
0.0831325
0.0832978
0.0834756
0.0836583
0.0838289
0.0839516
0.0839854
0.0839151
0.0837758
0.0836585
0.0900627
0.0920301
0.0992313
0.0959886
0.0881235
0.0832086
0.081549
0.0814922
0.0820689
0.0827627
0.0833107
0.083593
0.083617
0.0834778
0.0833016
0.0831941
0.0832146
0.0833744
0.0836458
0.0839769
0.0843075
0.0845808
0.084754
0.0848041
0.0847271
0.0845366
0.0842569
0.0839192
0.0835544
0.0831917
0.0828535
0.0825602
0.0823141
0.0821185
0.0819718
0.0818786
0.0818269
0.0818165
0.081833
0.081877
0.0819427
0.0820303
0.0821379
0.0822568
0.0823822
0.0825158
0.0826621
0.0828091
0.0829618
0.0831291
0.0833049
0.0834869
0.0836777
0.0838667
0.0840331
0.0841368
0.0841402
0.0840345
0.0838651
0.0837311
0.0900657
0.0921176
0.0993482
0.0956597
0.0877315
0.0827968
0.0811972
0.0811967
0.0818412
0.0826374
0.0833367
0.0837931
0.0839657
0.0839026
0.0837094
0.083503
0.0833743
0.0833731
0.0835067
0.0837491
0.0840528
0.0843609
0.08462
0.0847874
0.0848374
0.0847629
0.0845745
0.084295
0.0839553
0.0835893
0.083228
0.0828889
0.0825886
0.0823336
0.082128
0.0819808
0.0818835
0.0818346
0.0818234
0.0818511
0.0819078
0.0819963
0.0821095
0.0822401
0.0823815
0.0825356
0.0827053
0.0828767
0.0830548
0.083246
0.0834455
0.0836464
0.0838473
0.0840334
0.0841872
0.0842654
0.084236
0.0840968
0.0839018
0.0837552
0.0900686
0.0922011
0.0994467
0.0953526
0.0873833
0.0824434
0.0808858
0.0809097
0.0815771
0.0824234
0.0832221
0.0838251
0.0841604
0.0842294
0.0840977
0.0838685
0.0836456
0.0835067
0.0834927
0.0836084
0.0838295
0.0841112
0.0844016
0.0846492
0.0848114
0.0848615
0.0847904
0.084608
0.0843381
0.0840094
0.0836503
0.0832845
0.0829389
0.0826252
0.0823582
0.0821448
0.0819874
0.0818868
0.0818307
0.0818249
0.0818585
0.0819363
0.0820495
0.0821866
0.0823404
0.0825138
0.0827073
0.0829042
0.0831096
0.0833265
0.0835509
0.0837718
0.0839823
0.0841655
0.0842977
0.0843436
0.0842804
0.0841105
0.0838953
0.08374
0.0900714
0.0922814
0.09953
0.0950639
0.0870293
0.0821406
0.0806217
0.0806511
0.0813111
0.0821653
0.0830115
0.0837169
0.0841976
0.0844193
0.0844048
0.0842256
0.0839767
0.0837489
0.0836085
0.0835892
0.0836945
0.0839003
0.0841666
0.0844438
0.0846828
0.0848428
0.0848967
0.0848382
0.084675
0.0844213
0.0841015
0.083741
0.0833719
0.0830136
0.0826864
0.0824016
0.0821719
0.0820018
0.0818842
0.0818273
0.0818226
0.0818727
0.0819749
0.0821096
0.082267
0.0824587
0.0826725
0.082894
0.0831276
0.0833715
0.0836196
0.08386
0.0840794
0.0842581
0.0843685
0.0843792
0.0842805
0.0840834
0.0838539
0.0836936
0.0900742
0.092359
0.0996004
0.094791
0.0866451
0.0818799
0.0804049
0.0804303
0.0810656
0.0818984
0.0827514
0.0835105
0.084098
0.0844617
0.0845897
0.0845149
0.0843073
0.0840527
0.0838296
0.0836947
0.0836773
0.0837783
0.0839764
0.0842331
0.0845025
0.0847393
0.0849056
0.0849785
0.0849421
0.0847975
0.0845576
0.0842436
0.0838843
0.083504
0.0831309
0.0827759
0.0824667
0.082215
0.082017
0.0818896
0.0818284
0.0818317
0.0819062
0.0820254
0.0821787
0.0823798
0.0826096
0.0828522
0.0831121
0.0833812
0.083653
0.0839101
0.0841364
0.0843079
0.084397
0.084377
0.0842443
0.0840234
0.0837852
0.0836239
0.0900769
0.0924337
0.0996597
0.094533
0.0863013
0.0816558
0.0802259
0.0802469
0.0808506
0.0816459
0.0824755
0.0832463
0.0838956
0.0843701
0.0846364
0.0846944
0.0845808
0.0843611
0.0841118
0.0839011
0.0837789
0.083769
0.0838729
0.0840705
0.0843259
0.0845987
0.0848492
0.0850376
0.0851335
0.0851205
0.0849967
0.0847707
0.0844643
0.0840984
0.0837018
0.0832904
0.0829037
0.0825594
0.0822675
0.0820479
0.081912
0.0818491
0.0818713
0.0819573
0.0820949
0.0822951
0.0825296
0.0827881
0.0830699
0.0833602
0.0836519
0.0839224
0.0841519
0.0843142
0.0843826
0.0843357
0.0841777
0.0839402
0.0836979
0.0835379
0.0900795
0.0925058
0.0997093
0.0942887
0.0859911
0.0814596
0.0800755
0.0800947
0.080667
0.0814179
0.0822058
0.082957
0.0836261
0.0841709
0.084551
0.0847435
0.0847541
0.0846201
0.084402
0.0841677
0.0839773
0.0838738
0.0838795
0.0839945
0.0842029
0.0844742
0.0847687
0.085044
0.0852603
0.0853859
0.0854017
0.0853021
0.0850926
0.0847828
0.0843935
0.0839495
0.0834961
0.0830601
0.0826685
0.0823451
0.0821133
0.0819637
0.0819112
0.0819373
0.0820407
0.0822199
0.0824478
0.082713
0.0830067
0.0833126
0.0836179
0.0838973
0.0841261
0.084277
0.0843257
0.0842559
0.0840799
0.0838358
0.0835968
0.083442
0.090082
0.0925751
0.0997504
0.0940575
0.0857111
0.0812874
0.0799497
0.0799714
0.0805161
0.081221
0.081958
0.0826687
0.0833248
0.0838985
0.0843555
0.084663
0.0848042
0.0847877
0.0846494
0.0844446
0.084234
0.0840711
0.0839947
0.0840271
0.08417
0.0844083
0.0847101
0.085038
0.0853496
0.0856047
0.0857698
0.0858207
0.0857445
0.0855289
0.0851831
0.0847404
0.0842448
0.0837371
0.0832499
0.0828154
0.0824686
0.0822135
0.0820628
0.0820051
0.0820487
0.082179
0.0823811
0.0826372
0.0829325
0.0832431
0.0835539
0.083836
0.0840596
0.0841971
0.0842276
0.0841398
0.0839526
0.0837104
0.0834809
0.0833343
0.0900845
0.0926419
0.0997841
0.0938389
0.0854573
0.0811359
0.0798441
0.0798711
0.0803923
0.0810549
0.0817388
0.082398
0.083018
0.0835862
0.0840806
0.0844703
0.084727
0.0848376
0.0848116
0.0846833
0.0845031
0.0843267
0.0842029
0.084171
0.0842477
0.0844353
0.0847164
0.0850641
0.0854402
0.0858027
0.0861085
0.0863175
0.0863919
0.0862943
0.086028
0.0856258
0.0851285
0.0845827
0.0840218
0.0834856
0.083017
0.0826367
0.0823658
0.082203
0.0821541
0.0822109
0.0823572
0.0825823
0.0828587
0.0831605
0.0834663
0.0837412
0.0839538
0.0840763
0.0840905
0.0839903
0.0837992
0.083565
0.0833504
0.0832147
0.0900869
0.0927061
0.0998112
0.0936325
0.0852265
0.0810008
0.0797534
0.0797892
0.080293
0.0809182
0.0815519
0.0821551
0.0827242
0.0832614
0.0837578
0.0841928
0.0845366
0.084763
0.0848615
0.0848429
0.0847399
0.0845994
0.0844746
0.0844091
0.0844357
0.0845713
0.0848179
0.0851613
0.0855722
0.0860118
0.0864329
0.086782
0.0869807
0.0869924
0.086834
0.0865262
0.0861009
0.0855722
0.0849737
0.0843648
0.0837888
0.0832784
0.0828729
0.0825734
0.0824007
0.0823501
0.0824113
0.0825697
0.0828056
0.0830767
0.0833617
0.0836178
0.0838118
0.0839171
0.0839171
0.0838104
0.0836216
0.0834014
0.0832057
0.0830822
0.0900892
0.0927675
0.0998326
0.0934381
0.0850165
0.0808809
0.0796765
0.079723
0.0802143
0.0808093
0.081398
0.0819458
0.0824577
0.0829468
0.0834178
0.0838616
0.0842569
0.0845745
0.0847905
0.0848969
0.0849062
0.0848501
0.0847697
0.0847114
0.0847172
0.0848183
0.0850313
0.0853574
0.0857774
0.0862593
0.0867534
0.0871723
0.0873598
0.0874314
0.087401
0.0872717
0.0870414
0.0866076
0.0860549
0.0854369
0.0847849
0.0841573
0.0836118
0.0831599
0.082835
0.0826465
0.082583
0.0826362
0.0827939
0.0830084
0.0832502
0.083472
0.083639
0.0837238
0.083711
0.083602
0.0834224
0.0832211
0.0830473
0.0829381
0.0900914
0.092826
0.099849
0.0932556
0.0848254
0.0807732
0.0796098
0.0796682
0.0801508
0.0807215
0.0812713
0.0817696
0.0822249
0.0826567
0.0830831
0.0835073
0.083919
0.0842948
0.084608
0.0848384
0.0849789
0.0850383
0.0850447
0.0850395
0.0850656
0.0851622
0.085358
0.0856648
0.0860735
0.0865577
0.087051
0.0873841
0.0875965
0.0877425
0.0878096
0.087786
0.0876586
0.0874241
0.0870976
0.0865942
0.08595
0.0852713
0.0845987
0.0839968
0.0834983
0.0831374
0.0829069
0.0828181
0.082855
0.0829777
0.0831476
0.0833147
0.0834422
0.0835015
0.0834767
0.0833694
0.0832042
0.0830266
0.0828771
0.0827839
0.0900935
0.0928815
0.0998611
0.093085
0.0846518
0.0806774
0.0795528
0.0796241
0.0801021
0.0806539
0.0811723
0.0816267
0.0820285
0.0824016
0.0827724
0.083156
0.0835538
0.083955
0.0843381
0.0846753
0.0849426
0.085134
0.0852605
0.0853503
0.0854412
0.0855734
0.0857786
0.0860746
0.0864567
0.086893
0.0872828
0.0875506
0.0877981
0.0880108
0.0881614
0.0882272
0.0881949
0.0880681
0.087839
0.0875078
0.0870958
0.0865117
0.0858011
0.0850847
0.0844139
0.0838634
0.0834341
0.0831572
0.0830272
0.0830127
0.0830748
0.083161
0.0832331
0.0832587
0.08322
0.0831161
0.08297
0.082818
0.0826955
0.0826185
0.0900955
0.0929339
0.0998695
0.0929262
0.0844943
0.0805914
0.0795027
0.0795873
0.0800628
0.0806012
0.081095
0.0815129
0.0818681
0.0821866
0.0824983
0.0828277
0.0831909
0.0835892
0.0840094
0.0844215
0.0847978
0.0851207
0.0853863
0.0856055
0.0858039
0.0860132
0.0862611
0.0865587
0.0868933
0.0872252
0.0874695
0.087726
0.0880022
0.0882655
0.0884871
0.0886364
0.0886955
0.0886564
0.0885122
0.0882711
0.0879385
0.0875167
0.0870256
0.0863398
0.0855758
0.0848425
0.0841905
0.0836894
0.0833464
0.0831437
0.0830586
0.0830326
0.0830266
0.0830059
0.0829487
0.0828483
0.0827225
0.0825965
0.0825026
0.0824405
0.0900974
0.0929829
0.0998748
0.0927793
0.0843523
0.0805151
0.0794601
0.0795577
0.0800337
0.0805625
0.0810377
0.0814274
0.0817426
0.0820116
0.0822666
0.0825383
0.0828524
0.0832266
0.0836487
0.0841006
0.0845572
0.0849965
0.0854018
0.0857702
0.0861091
0.0864339
0.0867546
0.0870511
0.0872829
0.0874697
0.0876808
0.087938
0.0882286
0.0885258
0.088801
0.0890216
0.0891645
0.0892121
0.0891551
0.0889922
0.0887253
0.088371
0.0879372
0.0874225
0.0868511
0.0860209
0.0851971
0.0844455
0.0838521
0.0834144
0.0831315
0.082956
0.0828428
0.0827571
0.0826712
0.0825705
0.0824607
0.0823631
0.0822958
0.0822498
0.0900992
0.0930285
0.0998776
0.0926446
0.0842249
0.0804478
0.0794239
0.0795346
0.080012
0.0805348
0.0809966
0.0813651
0.0816504
0.081878
0.082081
0.0822963
0.0825582
0.0828877
0.083284
0.0837418
0.0842441
0.0847708
0.0853023
0.0858211
0.0863184
0.0867838
0.0871738
0.0873846
0.0875508
0.0877265
0.087938
0.0881956
0.0884899
0.0888056
0.0891166
0.0893931
0.0896065
0.0897365
0.0897643
0.0896852
0.0894941
0.0891975
0.0888042
0.0883327
0.0877833
0.0871568
0.0863746
0.0854456
0.0845775
0.0838642
0.083337
0.0829644
0.0827075
0.0825303
0.082399
0.082288
0.082191
0.0821184
0.0820733
0.082045
0.0901008
0.0930704
0.0998785
0.0925221
0.0841117
0.0803891
0.0793935
0.0795165
0.0799967
0.0805161
0.0809696
0.0813246
0.0815869
0.0817807
0.0819391
0.0821026
0.0823106
0.0825857
0.0829359
0.0833694
0.083883
0.084464
0.0850925
0.0857447
0.0863928
0.0869819
0.0873603
0.0875967
0.087798
0.0880017
0.0882283
0.0884915
0.0887886
0.0891126
0.0894454
0.0897603
0.0900296
0.09023
0.0903389
0.0903428
0.0902344
0.0900074
0.0896676
0.0892242
0.0886844
0.0880761
0.0873923
0.0866019
0.0855403
0.0845326
0.0837151
0.0830968
0.0826531
0.0823504
0.0821492
0.0820118
0.0819184
0.0818612
0.0818326
0.0818197
0.0901023
0.0931083
0.0998778
0.0924122
0.0840123
0.0803386
0.0793688
0.0795036
0.0799878
0.0805068
0.0809559
0.0813008
0.081547
0.0817159
0.0818402
0.0819573
0.082114
0.0823291
0.0826235
0.0830104
0.0835024
0.084098
0.084782
0.0855283
0.0862943
0.0869922
0.0874311
0.0877421
0.0880111
0.0882657
0.0885263
0.0888069
0.0891129
0.089443
0.0897882
0.0901286
0.0904401
0.0906987
0.0908793
0.0909631
0.0909356
0.090788
0.0905145
0.0901185
0.089606
0.0889946
0.088299
0.0875244
0.086664
0.085444
0.0843114
0.0834003
0.0827212
0.0822483
0.081943
0.0817553
0.0816483
0.081594
0.0815782
0.0815757
0.0901036
0.0931423
0.099876
0.092315
0.0839262
0.0802961
0.0793494
0.079495
0.0799831
0.0805027
0.0809493
0.0812896
0.0815258
0.0816793
0.0817794
0.0818647
0.0819738
0.0821292
0.082359
0.0826865
0.0831296
0.0837017
0.0843938
0.0851834
0.0860283
0.0868333
0.0874004
0.0878093
0.0881616
0.0884876
0.0888017
0.0891177
0.0894454
0.0897871
0.0901423
0.0905006
0.0908413
0.0911457
0.0913872
0.0915443
0.0915944
0.091527
0.0913297
0.0909965
0.0905296
0.0899371
0.0892295
0.0884231
0.0875359
0.0865355
0.0851627
0.0839278
0.0829626
0.0822687
0.0818137
0.0815362
0.0813891
0.0813254
0.0813135
0.081309
0.0901048
0.0931721
0.0998737
0.0922305
0.0838533
0.0802613
0.0793352
0.079491
0.0799835
0.0805049
0.0809526
0.0812917
0.0815239
0.0816678
0.0817514
0.0818107
0.0818802
0.0819845
0.0821496
0.0824063
0.0827818
0.0832944
0.0839534
0.0847413
0.0856249
0.0865245
0.087271
0.0877859
0.0882276
0.088637
0.0890221
0.0893934
0.0897599
0.0901275
0.0904992
0.0908737
0.0912395
0.0915774
0.0918662
0.0920854
0.0922086
0.0922177
0.0921008
0.0918413
0.0914355
0.0908847
0.0901925
0.0893712
0.0884388
0.0874248
0.0862366
0.0847317
0.0834382
0.0824682
0.0818058
0.0813909
0.081166
0.0810657
0.0810392
0.0810325
0.0901059
0.0931978
0.099871
0.0921583
0.0837928
0.080234
0.0793259
0.0794907
0.0799876
0.0805115
0.0809605
0.0813002
0.0815327
0.0816731
0.0817462
0.0817895
0.0818275
0.0818852
0.081988
0.0821699
0.0824657
0.0829016
0.0834942
0.0842406
0.0851244
0.0860989
0.0870407
0.0876589
0.0881958
0.0886965
0.0891651
0.0896071
0.0900289
0.0904386
0.0908401
0.0912374
0.091626
0.0919921
0.0923205
0.0925909
0.0927785
0.0928589
0.0928188
0.0926399
0.0923075
0.0918166
0.0911645
0.0903591
0.0894128
0.0883521
0.0872121
0.085816
0.0842202
0.082922
0.0819887
0.081375
0.0810197
0.0808489
0.0807802
0.0807596
0.0901067
0.0932195
0.0998683
0.0920985
0.0837438
0.0802135
0.079321
0.0794943
0.0799959
0.0805231
0.0809754
0.0813188
0.0815536
0.0816946
0.0817642
0.0817977
0.0818156
0.0818352
0.0818836
0.0819987
0.0822131
0.0825603
0.0830645
0.0837404
0.0845867
0.0855761
0.0866106
0.0874261
0.0880705
0.0886585
0.0892137
0.0897371
0.0902307
0.0906991
0.091146
0.0915777
0.0919938
0.0923883
0.0927498
0.0930619
0.0933037
0.0934504
0.0934827
0.0933842
0.093131
0.092714
0.092124
0.0913623
0.0904361
0.0893666
0.0881907
0.0869445
0.085353
0.0837246
0.082464
0.0815808
0.081026
0.0807302
0.0805893
0.0805388
0.0901074
0.0932374
0.0998658
0.0920497
0.0837053
0.0801988
0.07932
0.079501
0.0800074
0.0805386
0.0809951
0.0813433
0.0815833
0.0817281
0.0817999
0.0818286
0.081831
0.0818221
0.0818293
0.0818817
0.0820178
0.0822706
0.0826744
0.0832557
0.0840277
0.0849799
0.0860604
0.0871023
0.0878431
0.0885159
0.0891584
0.0897673
0.0903414
0.0908811
0.0913884
0.0918688
0.0923234
0.0927515
0.093146
0.0934957
0.093783
0.0939889
0.0940915
0.094066
0.0938979
0.0935631
0.0930512
0.0923568
0.0914808
0.0904395
0.0892649
0.088006
0.0866828
0.0849513
0.0833385
0.0821239
0.0812998
0.0808116
0.0805513
0.0804408
0.090108
0.0932518
0.0998635
0.0920112
0.0836769
0.0801903
0.0793232
0.0795113
0.0800225
0.0805582
0.0810195
0.0813735
0.0816201
0.0817727
0.0818506
0.0818817
0.0818788
0.0818539
0.081829
0.0818304
0.0818909
0.0820528
0.0823545
0.0828283
0.0834977
0.0843782
0.0854503
0.0866084
0.0875163
0.0882767
0.0889973
0.0896897
0.0903465
0.0909662
0.0915469
0.092088
0.0925931
0.0930655
0.0934976
0.0938859
0.0942167
0.0944755
0.0946397
0.094687
0.0945998
0.0943542
0.0939303
0.0933226
0.0925249
0.0915446
0.0904107
0.0891657
0.0878619
0.0865127
0.0847075
0.0831399
0.0819994
0.0812497
0.0808174
0.0806183
0.0901085
0.0932628
0.0998617
0.0919819
0.0836559
0.0801855
0.0793289
0.0795241
0.0800408
0.0805818
0.0810492
0.0814108
0.0816663
0.0818284
0.0819158
0.0819535
0.0819509
0.081918
0.0818708
0.0818336
0.0818361
0.0819161
0.0821158
0.0824748
0.0830312
0.0838052
0.0848023
0.0859688
0.087106
0.0879469
0.0887325
0.0894999
0.0902391
0.0909395
0.0915979
0.0922127
0.0927815
0.0933078
0.0937871
0.0942191
0.0945957
0.0949034
0.0951277
0.0952454
0.095235
0.0950772
0.0947512
0.0942416
0.0935431
0.092654
0.0915964
0.0904063
0.0891292
0.0878361
0.0864892
0.0847353
0.0832825
0.0822448
0.0815996
0.0812851
0.0901088
0.0932708
0.0998603
0.0919614
0.0836429
0.0801852
0.0793375
0.0795392
0.0800615
0.0806082
0.0810822
0.0814516
0.0817163
0.0818879
0.0819852
0.0820325
0.0820369
0.0820026
0.0819424
0.0818811
0.0818413
0.0818612
0.0819763
0.0822258
0.0826529
0.0832937
0.0841751
0.0852896
0.0865273
0.0875258
0.0883785
0.0892034
0.0900122
0.0907919
0.0915304
0.092222
0.0928636
0.0934558
0.0939935
0.094478
0.094905
0.0952656
0.0955479
0.0957312
0.0957984
0.0957298
0.0955043
0.0951016
0.0945163
0.0937416
0.0927914
0.0916897
0.0904836
0.0892322
0.0880059
0.0867917
0.085222
0.0839666
0.0831129
0.0826887
0.090109
0.0932757
0.0998595
0.0919491
0.0836367
0.0801883
0.0793472
0.0795547
0.0800832
0.0806365
0.0811182
0.0814964
0.0817718
0.0819558
0.0820654
0.0821239
0.0821388
0.0821117
0.0820517
0.0819748
0.0819048
0.0818736
0.0819133
0.0820601
0.0823655
0.0828734
0.0836166
0.0846068
0.0858107
0.0870327
0.0879429
0.0888092
0.0896724
0.0905184
0.0913334
0.0921056
0.0928242
0.0934885
0.094095
0.094641
0.0951269
0.0955452
0.0958875
0.0961396
0.096285
0.0963039
0.0961777
0.0958915
0.0954283
0.0947813
0.0939596
0.092984
0.0918865
0.0907246
0.089562
0.0884834
0.0874629
0.0863471
0.0854366
0.0849557
0.0901091
0.0932777
0.0998591
0.0919443
0.0836359
0.0801931
0.0793572
0.0795706
0.0801055
0.0806663
0.0811565
0.0815451
0.0818322
0.0820295
0.0821534
0.0822257
0.0822528
0.0822366
0.0821813
0.082103
0.0820208
0.0819541
0.0819354
0.0820005
0.0821954
0.0825654
0.083154
0.0839952
0.0850913
0.0863473
0.0874267
0.0883363
0.0892284
0.0901221
0.091
0.0918448
0.0926441
0.0933872
0.0940685
0.0946885
0.0952426
0.0957286
0.0961389
0.0964637
0.0966876
0.0967939
0.0967675
0.096597
0.0962618
0.0957556
0.0950794
0.0942477
0.0932941
0.0922548
0.0911944
0.0901914
0.0893137
0.0885731
0.0880281
0.0877343
0.090109
0.0932769
0.0998593
0.091947
0.0836404
0.0801997
0.0793673
0.0795857
0.080127
0.0806959
0.0811956
0.0815953
0.0818954
0.0821074
0.0822472
0.0823355
0.08238
0.0823793
0.0823381
0.0822659
0.0821767
0.0820918
0.0820363
0.0820421
0.0821485
0.0823954
0.0828291
0.0834893
0.0844076
0.0855738
0.0868514
0.0877848
0.0886875
0.0896095
0.0905332
0.0914393
0.0923111
0.0931346
0.0939003
0.094601
0.095233
0.0957975
0.0962852
0.0966878
0.0969967
0.0971943
0.0972702
0.097213
0.0970076
0.0966455
0.0961232
0.0954526
0.0946612
0.093772
0.09285
0.0919554
0.0911573
0.0905242
0.0900838
0.0898474
0.0901089
0.0932733
0.0998599
0.0919575
0.083652
0.0802099
0.07938
0.0796029
0.0801505
0.0807271
0.0812364
0.0816473
0.0819606
0.0821878
0.0823446
0.0824502
0.0825141
0.082533
0.0825109
0.0824553
0.0823773
0.0822929
0.082218
0.0821776
0.0822107
0.0823523
0.0826459
0.0831345
0.0838567
0.0848398
0.086022
0.0871583
0.088079
0.0889975
0.08994
0.0908877
0.0918196
0.0927169
0.0935653
0.0943564
0.0950782
0.0957303
0.0963062
0.0967982
0.0971961
0.0974912
0.0976719
0.0977283
0.0976518
0.0974341
0.0970692
0.0965667
0.0959479
0.0952344
0.0944732
0.0937135
0.0930271
0.0924607
0.092059
0.0918464
0.0901086
0.0932666
0.0998611
0.0919755
0.0836683
0.0802212
0.079391
0.0796178
0.080172
0.0807577
0.0812784
0.0817028
0.0820314
0.0822755
0.0824505
0.0825745
0.0826595
0.082703
0.082705
0.0826701
0.0826069
0.0825261
0.0824452
0.0823788
0.0823589
0.0824104
0.0825775
0.0829023
0.0834268
0.084187
0.0851965
0.0863757
0.0873941
0.088301
0.0892322
0.0901952
0.0911673
0.0921269
0.0930547
0.093935
0.094754
0.0955058
0.0961812
0.0967738
0.0972737
0.0976736
0.0979673
0.0981395
0.098189
0.0981081
0.0978989
0.0975637
0.0971194
0.0965872
0.095999
0.0954033
0.0948428
0.0943746
0.0940414
0.0938556
0.0901082
0.0932567
0.0998627
0.0920022
0.0836909
0.0802346
0.0794025
0.0796322
0.0801932
0.0807882
0.08132
0.0817574
0.0821013
0.0823629
0.0825568
0.0827
0.0828077
0.0828748
0.0829028
0.0828932
0.0828522
0.082789
0.0827128
0.0826384
0.0825827
0.0825764
0.0826446
0.0828231
0.0831596
0.0836888
0.0844496
0.0854474
0.0866051
0.0875268
0.0884259
0.0893742
0.090362
0.0913653
0.0923611
0.0933266
0.0942467
0.0951056
0.0958942
0.0966022
0.0972168
0.0977313
0.0981423
0.0984378
0.0986121
0.098665
0.0986024
0.0984248
0.0981487
0.0977895
0.0973778
0.096947
0.0965351
0.0961833
0.0959265
0.0957793
0.0901077
0.0932434
0.0998649
0.0920381
0.0837208
0.0802508
0.0794147
0.0796466
0.0802141
0.0808188
0.0813633
0.0818158
0.0821763
0.0824557
0.0826687
0.0828313
0.082962
0.0830549
0.08311
0.0831276
0.0831117
0.0830687
0.0830042
0.0829276
0.0828543
0.0828034
0.0827923
0.0828558
0.0830295
0.0833494
0.0838556
0.0845805
0.0855453
0.08667
0.0875401
0.0884427
0.0894166
0.0904396
0.0914852
0.0925283
0.0935456
0.0945191
0.09543
0.0962647
0.0970106
0.0976547
0.0981927
0.0986138
0.0989155
0.0990975
0.0991679
0.0991324
0.099006
0.098808
0.0985591
0.0982862
0.0980189
0.097782
0.097607
0.0975075
0.090107
0.0932262
0.0998674
0.0920844