/*--------------------------------*- C++ -*----------------------------------*\
| =========                 |                                                 |
| \\      /  F ield         | OpenFOAM: The Open Source CFD Toolbox           |
|  \\    /   O peration     | Version:  2212                                  |
|   \\  /    A nd           | Website:  www.openfoam.com                      |
|    \\/     M anipulation  |                                                 |
\*---------------------------------------------------------------------------*/
FoamFile
{
    version     2.0;
    format      ascii;
    arch        "LSB;label=32;scalar=64";
    class       volScalarField;
    location    "1";
    object      g3_;
}
// * * * * * * * * * * * * * * * * * * * * * * * * * * * * * * * * * * * * * //

dimensions      [0 0 0 0 0 0 0];

internalField   nonuniform List<scalar> 
3600
(
-1.87793e-05
-1.87793e-05
-1.87793e-05
-1.87793e-05
-1.87793e-05
-1.87793e-05
-1.87793e-05
-1.87793e-05
-1.87793e-05
-1.87793e-05
-1.87793e-05
-1.87793e-05
-1.87793e-05
-1.87793e-05
-1.87793e-05
-1.87793e-05
-1.87793e-05
-1.87793e-05
-1.87793e-05
-1.87793e-05
-1.87793e-05
-1.87793e-05
-1.87793e-05
-1.87793e-05
-1.87793e-05
-1.87793e-05
-1.87793e-05
-1.87793e-05
-1.87793e-05
-1.87793e-05
-1.87793e-05
-1.87793e-05
-1.87793e-05
-1.87793e-05
-1.87793e-05
-1.87793e-05
-1.87793e-05
-1.87793e-05
-1.87793e-05
-1.87793e-05
-1.87793e-05
-1.87793e-05
-1.87793e-05
-1.87793e-05
-1.87793e-05
-1.87793e-05
-1.87793e-05
-1.87793e-05
-1.87793e-05
-1.87793e-05
-1.87793e-05
-1.87793e-05
-1.87793e-05
-1.87793e-05
-1.87793e-05
-1.87793e-05
-1.87793e-05
-1.87793e-05
-1.87793e-05
-1.87793e-05
-1.87793e-05
-1.87793e-05
-1.87793e-05
-1.87793e-05
-1.87793e-05
-1.87793e-05
-1.87793e-05
-1.87793e-05
-1.87793e-05
-1.87793e-05
-1.87793e-05
-1.87793e-05
-1.87793e-05
-1.87793e-05
-1.87793e-05
-1.87793e-05
-1.87793e-05
-1.87793e-05
-1.87793e-05
-1.87793e-05
-1.87793e-05
-1.87793e-05
-1.87793e-05
-1.87793e-05
-1.87793e-05
-1.87793e-05
-1.87793e-05
-1.87793e-05
-1.87793e-05
-1.87793e-05
-1.87793e-05
-1.87793e-05
-1.87793e-05
-1.87793e-05
-1.87793e-05
-1.87793e-05
-1.87793e-05
-1.87793e-05
-1.87793e-05
-1.87793e-05
-1.87793e-05
-1.87793e-05
-1.87793e-05
-1.87793e-05
-1.87793e-05
-1.87793e-05
-1.87793e-05
-1.87793e-05
-1.87793e-05
-1.87793e-05
-1.87793e-05
-1.87793e-05
-1.87793e-05
-1.87793e-05
-1.87793e-05
-1.87793e-05
-1.87793e-05
-1.87793e-05
-1.87793e-05
-1.87793e-05
-1.87793e-05
-1.87793e-05
-1.87793e-05
-1.87793e-05
-1.87793e-05
-1.87793e-05
-1.87793e-05
-1.87793e-05
-1.87793e-05
-1.87793e-05
-1.87793e-05
-1.87793e-05
-1.87793e-05
-1.87793e-05
-1.87793e-05
-1.87793e-05
-1.87793e-05
-1.87793e-05
-1.87793e-05
-1.87793e-05
-1.87793e-05
-1.87793e-05
-1.87793e-05
-1.87793e-05
-1.87793e-05
-1.87793e-05
-1.87793e-05
-1.87793e-05
-1.87793e-05
-1.87795e-05
-1.87799e-05
-1.87803e-05
-1.87807e-05
-1.8781e-05
-1.87813e-05
-1.87816e-05
-1.87818e-05
-1.87819e-05
-1.87821e-05
-1.87822e-05
-1.87822e-05
-1.87823e-05
-1.87823e-05
-1.87824e-05
-1.87823e-05
-1.87823e-05
-1.87823e-05
-1.87822e-05
-1.87821e-05
-1.87819e-05
-1.87818e-05
-1.87816e-05
-1.87813e-05
-1.87809e-05
-1.87805e-05
-1.878e-05
-1.87794e-05
-1.87793e-05
-1.87793e-05
-1.87793e-05
-1.87793e-05
-1.87793e-05
-1.87793e-05
-1.87793e-05
-1.87793e-05
-1.87793e-05
-1.87818e-05
-1.8788e-05
-1.87926e-05
-1.87958e-05
-1.87981e-05
-1.87997e-05
-1.88008e-05
-1.88016e-05
-1.88022e-05
-1.88027e-05
-1.88031e-05
-1.88034e-05
-1.88037e-05
-1.8804e-05
-1.88043e-05
-1.88046e-05
-1.88048e-05
-1.88051e-05
-1.88053e-05
-1.88055e-05
-1.88057e-05
-1.88059e-05
-1.88061e-05
-1.88062e-05
-1.88064e-05
-1.88065e-05
-1.88066e-05
-1.88067e-05
-1.88067e-05
-1.88068e-05
-1.88068e-05
-1.88069e-05
-1.88069e-05
-1.88069e-05
-1.88069e-05
-1.88069e-05
-1.88069e-05
-1.88068e-05
-1.88068e-05
-1.88068e-05
-1.88068e-05
-1.88067e-05
-1.88067e-05
-1.88066e-05
-1.88066e-05
-1.88065e-05
-1.88064e-05
-1.88062e-05
-1.8806e-05
-1.88057e-05
-1.88054e-05
-1.8805e-05
-1.88046e-05
-1.88043e-05
-1.87793e-05
-1.87793e-05
-1.87793e-05
-1.87793e-05
-1.87923e-05
-1.88072e-05
-1.88136e-05
-1.88163e-05
-1.88174e-05
-1.88178e-05
-1.88176e-05
-1.88172e-05
-1.88167e-05
-1.88161e-05
-1.88156e-05
-1.88151e-05
-1.88147e-05
-1.88144e-05
-1.88142e-05
-1.8814e-05
-1.88138e-05
-1.88137e-05
-1.88136e-05
-1.88135e-05
-1.88135e-05
-1.88135e-05
-1.88134e-05
-1.88134e-05
-1.88134e-05
-1.88134e-05
-1.88134e-05
-1.88133e-05
-1.88133e-05
-1.88133e-05
-1.88132e-05
-1.88132e-05
-1.88131e-05
-1.8813e-05
-1.8813e-05
-1.88129e-05
-1.88129e-05
-1.88128e-05
-1.88127e-05
-1.88127e-05
-1.88127e-05
-1.88126e-05
-1.88126e-05
-1.88125e-05
-1.88125e-05
-1.88125e-05
-1.88124e-05
-1.88124e-05
-1.88123e-05
-1.88122e-05
-1.8812e-05
-1.88117e-05
-1.88114e-05
-1.88109e-05
-1.88105e-05
-1.88102e-05
-1.87793e-05
-1.87793e-05
-1.87793e-05
-1.87793e-05
-1.88072e-05
-1.88221e-05
-1.88279e-05
-1.88298e-05
-1.88304e-05
-1.88303e-05
-1.88297e-05
-1.88288e-05
-1.88276e-05
-1.88261e-05
-1.88246e-05
-1.8823e-05
-1.88215e-05
-1.88202e-05
-1.88191e-05
-1.88182e-05
-1.88173e-05
-1.88166e-05
-1.8816e-05
-1.88155e-05
-1.88151e-05
-1.88147e-05
-1.88144e-05
-1.88141e-05
-1.88139e-05
-1.88136e-05
-1.88134e-05
-1.88132e-05
-1.8813e-05
-1.88128e-05
-1.88126e-05
-1.88124e-05
-1.88122e-05
-1.88121e-05
-1.88119e-05
-1.88117e-05
-1.88116e-05
-1.88114e-05
-1.88113e-05
-1.88112e-05
-1.88111e-05
-1.88111e-05
-1.8811e-05
-1.8811e-05
-1.88109e-05
-1.88109e-05
-1.88108e-05
-1.88107e-05
-1.88107e-05
-1.88105e-05
-1.88103e-05
-1.881e-05
-1.88096e-05
-1.88091e-05
-1.88087e-05
-1.88084e-05
-1.87793e-05
-1.87793e-05
-1.87793e-05
-1.87818e-05
-1.88136e-05
-1.88279e-05
-1.88331e-05
-1.88354e-05
-1.88367e-05
-1.88375e-05
-1.88377e-05
-1.88371e-05
-1.88358e-05
-1.88338e-05
-1.88318e-05
-1.88302e-05
-1.88285e-05
-1.88267e-05
-1.88249e-05
-1.88232e-05
-1.88218e-05
-1.88205e-05
-1.88193e-05
-1.88183e-05
-1.88174e-05
-1.88167e-05
-1.8816e-05
-1.88155e-05
-1.8815e-05
-1.88145e-05
-1.88141e-05
-1.88137e-05
-1.88134e-05
-1.88131e-05
-1.88127e-05
-1.88124e-05
-1.88121e-05
-1.88118e-05
-1.88116e-05
-1.88113e-05
-1.88111e-05
-1.88109e-05
-1.88107e-05
-1.88106e-05
-1.88104e-05
-1.88103e-05
-1.88102e-05
-1.88101e-05
-1.881e-05
-1.88099e-05
-1.88098e-05
-1.88097e-05
-1.88095e-05
-1.88093e-05
-1.8809e-05
-1.88086e-05
-1.8808e-05
-1.88074e-05
-1.88069e-05
-1.88066e-05
-1.87793e-05
-1.87793e-05
-1.87793e-05
-1.8788e-05
-1.88163e-05
-1.88298e-05
-1.88354e-05
-1.88367e-05
-1.88372e-05
-1.88385e-05
-1.88399e-05
-1.88409e-05
-1.88412e-05
-1.88407e-05
-1.88394e-05
-1.88375e-05
-1.88352e-05
-1.88325e-05
-1.8831e-05
-1.88293e-05
-1.88276e-05
-1.8826e-05
-1.88245e-05
-1.8823e-05
-1.88217e-05
-1.88205e-05
-1.88195e-05
-1.88186e-05
-1.88177e-05
-1.8817e-05
-1.88163e-05
-1.88157e-05
-1.88151e-05
-1.88146e-05
-1.88141e-05
-1.88136e-05
-1.88131e-05
-1.88126e-05
-1.88122e-05
-1.88118e-05
-1.88115e-05
-1.88112e-05
-1.88109e-05
-1.88107e-05
-1.88105e-05
-1.88103e-05
-1.88101e-05
-1.881e-05
-1.88098e-05
-1.88097e-05
-1.88095e-05
-1.88094e-05
-1.88092e-05
-1.88089e-05
-1.88085e-05
-1.8808e-05
-1.88074e-05
-1.88067e-05
-1.88061e-05
-1.88058e-05
-1.87793e-05
-1.87793e-05
-1.87793e-05
-1.87926e-05
-1.88174e-05
-1.88304e-05
-1.88367e-05
-1.88373e-05
-1.88361e-05
-1.88362e-05
-1.88379e-05
-1.88402e-05
-1.88419e-05
-1.88428e-05
-1.88429e-05
-1.88423e-05
-1.8841e-05
-1.88392e-05
-1.88369e-05
-1.88343e-05
-1.88321e-05
-1.88305e-05
-1.88289e-05
-1.88273e-05
-1.88258e-05
-1.88243e-05
-1.88229e-05
-1.88216e-05
-1.88204e-05
-1.88193e-05
-1.88183e-05
-1.88174e-05
-1.88166e-05
-1.88158e-05
-1.8815e-05
-1.88143e-05
-1.88136e-05
-1.8813e-05
-1.88123e-05
-1.88118e-05
-1.88113e-05
-1.88109e-05
-1.88105e-05
-1.88102e-05
-1.88099e-05
-1.88096e-05
-1.88094e-05
-1.88092e-05
-1.8809e-05
-1.88088e-05
-1.88086e-05
-1.88083e-05
-1.88081e-05
-1.88077e-05
-1.88072e-05
-1.88066e-05
-1.8806e-05
-1.88053e-05
-1.88047e-05
-1.88044e-05
-1.87793e-05
-1.87793e-05
-1.87793e-05
-1.87958e-05
-1.88178e-05
-1.88303e-05
-1.88375e-05
-1.88385e-05
-1.88362e-05
-1.88339e-05
-1.88339e-05
-1.88363e-05
-1.88394e-05
-1.88418e-05
-1.88433e-05
-1.88439e-05
-1.88438e-05
-1.8843e-05
-1.88417e-05
-1.88399e-05
-1.88378e-05
-1.88354e-05
-1.88328e-05
-1.88312e-05
-1.88297e-05
-1.88282e-05
-1.88266e-05
-1.88251e-05
-1.88236e-05
-1.88223e-05
-1.8821e-05
-1.88198e-05
-1.88186e-05
-1.88175e-05
-1.88165e-05
-1.88155e-05
-1.88146e-05
-1.88137e-05
-1.88129e-05
-1.88121e-05
-1.88114e-05
-1.88108e-05
-1.88103e-05
-1.88098e-05
-1.88094e-05
-1.88091e-05
-1.88088e-05
-1.88085e-05
-1.88082e-05
-1.8808e-05
-1.88077e-05
-1.88074e-05
-1.8807e-05
-1.88066e-05
-1.88061e-05
-1.88054e-05
-1.88047e-05
-1.8804e-05
-1.88034e-05
-1.88031e-05
-1.87793e-05
-1.87793e-05
-1.87793e-05
-1.87981e-05
-1.88176e-05
-1.88297e-05
-1.88377e-05
-1.88399e-05
-1.88379e-05
-1.88339e-05
-1.88319e-05
-1.8832e-05
-1.88344e-05
-1.88381e-05
-1.88412e-05
-1.88432e-05
-1.88442e-05
-1.88445e-05
-1.88442e-05
-1.88433e-05
-1.8842e-05
-1.88403e-05
-1.88382e-05
-1.88359e-05
-1.88333e-05
-1.88316e-05
-1.88301e-05
-1.88286e-05
-1.8827e-05
-1.88255e-05
-1.8824e-05
-1.88225e-05
-1.88211e-05
-1.88197e-05
-1.88184e-05
-1.88171e-05
-1.88159e-05
-1.88147e-05
-1.88136e-05
-1.88126e-05
-1.88117e-05
-1.88109e-05
-1.88102e-05
-1.88096e-05
-1.8809e-05
-1.88086e-05
-1.88082e-05
-1.88078e-05
-1.88075e-05
-1.88071e-05
-1.88068e-05
-1.88064e-05
-1.8806e-05
-1.88055e-05
-1.88049e-05
-1.88042e-05
-1.88035e-05
-1.88027e-05
-1.88022e-05
-1.88019e-05
-1.87793e-05
-1.87793e-05
-1.87793e-05
-1.87997e-05
-1.88172e-05
-1.88288e-05
-1.88371e-05
-1.88409e-05
-1.88402e-05
-1.88363e-05
-1.8832e-05
-1.88302e-05
-1.88305e-05
-1.88325e-05
-1.88368e-05
-1.88404e-05
-1.88428e-05
-1.88442e-05
-1.88449e-05
-1.88449e-05
-1.88444e-05
-1.88434e-05
-1.8842e-05
-1.88403e-05
-1.88383e-05
-1.8836e-05
-1.88335e-05
-1.88316e-05
-1.88302e-05
-1.88287e-05
-1.88271e-05
-1.88255e-05
-1.88239e-05
-1.88223e-05
-1.88207e-05
-1.88191e-05
-1.88176e-05
-1.88162e-05
-1.88148e-05
-1.88135e-05
-1.88123e-05
-1.88112e-05
-1.88102e-05
-1.88094e-05
-1.88087e-05
-1.88082e-05
-1.88076e-05
-1.88071e-05
-1.88067e-05
-1.88063e-05
-1.88059e-05
-1.88054e-05
-1.88049e-05
-1.88044e-05
-1.88037e-05
-1.8803e-05
-1.88022e-05
-1.88015e-05
-1.8801e-05
-1.88007e-05
-1.87793e-05
-1.87793e-05
-1.87793e-05
-1.88008e-05
-1.88167e-05
-1.88276e-05
-1.88358e-05
-1.88412e-05
-1.88419e-05
-1.88394e-05
-1.88344e-05
-1.88305e-05
-1.88286e-05
-1.88291e-05
-1.88314e-05
-1.88356e-05
-1.88395e-05
-1.88423e-05
-1.88441e-05
-1.8845e-05
-1.88453e-05
-1.88451e-05
-1.88444e-05
-1.88434e-05
-1.88419e-05
-1.88402e-05
-1.88381e-05
-1.88359e-05
-1.88334e-05
-1.88315e-05
-1.88301e-05
-1.88285e-05
-1.88268e-05
-1.88251e-05
-1.88233e-05
-1.88215e-05
-1.88198e-05
-1.8818e-05
-1.88164e-05
-1.88148e-05
-1.88132e-05
-1.88118e-05
-1.88105e-05
-1.88095e-05
-1.88086e-05
-1.88078e-05
-1.88072e-05
-1.88066e-05
-1.8806e-05
-1.88055e-05
-1.8805e-05
-1.88045e-05
-1.88039e-05
-1.88033e-05
-1.88026e-05
-1.88019e-05
-1.88011e-05
-1.88004e-05
-1.87998e-05
-1.87995e-05
-1.87793e-05
-1.87793e-05
-1.87793e-05
-1.88016e-05
-1.88161e-05
-1.88261e-05
-1.88338e-05
-1.88407e-05
-1.88428e-05
-1.88418e-05
-1.88381e-05
-1.88325e-05
-1.88291e-05
-1.88273e-05
-1.8828e-05
-1.88306e-05
-1.88345e-05
-1.88388e-05
-1.88418e-05
-1.88439e-05
-1.8845e-05
-1.88456e-05
-1.88456e-05
-1.88452e-05
-1.88444e-05
-1.88432e-05
-1.88417e-05
-1.88399e-05
-1.88378e-05
-1.88354e-05
-1.88329e-05
-1.88312e-05
-1.88296e-05
-1.88279e-05
-1.88261e-05
-1.88242e-05
-1.88222e-05
-1.88203e-05
-1.88183e-05
-1.88164e-05
-1.88145e-05
-1.88128e-05
-1.88111e-05
-1.88098e-05
-1.88086e-05
-1.88076e-05
-1.88068e-05
-1.8806e-05
-1.88054e-05
-1.88047e-05
-1.88041e-05
-1.88036e-05
-1.88029e-05
-1.88023e-05
-1.88016e-05
-1.88008e-05
-1.88e-05
-1.87993e-05
-1.87987e-05
-1.87984e-05
-1.87793e-05
-1.87793e-05
-1.87793e-05
-1.88022e-05
-1.88156e-05
-1.88246e-05
-1.88318e-05
-1.88394e-05
-1.88429e-05
-1.88433e-05
-1.88412e-05
-1.88368e-05
-1.88314e-05
-1.8828e-05
-1.88262e-05
-1.88272e-05
-1.88299e-05
-1.88336e-05
-1.88381e-05
-1.88414e-05
-1.88436e-05
-1.8845e-05
-1.88458e-05
-1.8846e-05
-1.88458e-05
-1.88452e-05
-1.88443e-05
-1.88429e-05
-1.88413e-05
-1.88394e-05
-1.88372e-05
-1.88347e-05
-1.88322e-05
-1.88306e-05
-1.88288e-05
-1.88269e-05
-1.88249e-05
-1.88227e-05
-1.88206e-05
-1.88184e-05
-1.88162e-05
-1.88141e-05
-1.88121e-05
-1.88103e-05
-1.88088e-05
-1.88076e-05
-1.88065e-05
-1.88056e-05
-1.88048e-05
-1.88041e-05
-1.88034e-05
-1.88027e-05
-1.8802e-05
-1.88013e-05
-1.88006e-05
-1.87998e-05
-1.8799e-05
-1.87983e-05
-1.87977e-05
-1.87974e-05
-1.87793e-05
-1.87793e-05
-1.87793e-05
-1.88027e-05
-1.88151e-05
-1.8823e-05
-1.88302e-05
-1.88375e-05
-1.88423e-05
-1.88439e-05
-1.88432e-05
-1.88404e-05
-1.88356e-05
-1.88306e-05
-1.88272e-05
-1.88255e-05
-1.88266e-05
-1.88294e-05
-1.88328e-05
-1.88375e-05
-1.8841e-05
-1.88434e-05
-1.8845e-05
-1.88459e-05
-1.88463e-05
-1.88463e-05
-1.88459e-05
-1.88451e-05
-1.8844e-05
-1.88425e-05
-1.88407e-05
-1.88386e-05
-1.88361e-05
-1.88334e-05
-1.88313e-05
-1.88295e-05
-1.88275e-05
-1.88254e-05
-1.88231e-05
-1.88207e-05
-1.88183e-05
-1.88159e-05
-1.88135e-05
-1.88112e-05
-1.88093e-05
-1.88077e-05
-1.88064e-05
-1.88053e-05
-1.88043e-05
-1.88035e-05
-1.88027e-05
-1.88019e-05
-1.88012e-05
-1.88004e-05
-1.87996e-05
-1.87988e-05
-1.8798e-05
-1.87973e-05
-1.87968e-05
-1.87965e-05
-1.87793e-05
-1.87793e-05
-1.87793e-05
-1.88031e-05
-1.88147e-05
-1.88215e-05
-1.88285e-05
-1.88352e-05
-1.8841e-05
-1.88438e-05
-1.88442e-05
-1.88428e-05
-1.88395e-05
-1.88345e-05
-1.88299e-05
-1.88266e-05
-1.8825e-05
-1.88261e-05
-1.8829e-05
-1.88322e-05
-1.8837e-05
-1.88406e-05
-1.88432e-05
-1.8845e-05
-1.8846e-05
-1.88466e-05
-1.88467e-05
-1.88464e-05
-1.88458e-05
-1.88448e-05
-1.88435e-05
-1.88418e-05
-1.88397e-05
-1.88373e-05
-1.88345e-05
-1.88319e-05
-1.883e-05
-1.8828e-05
-1.88257e-05
-1.88232e-05
-1.88206e-05
-1.88179e-05
-1.88153e-05
-1.88126e-05
-1.88101e-05
-1.88081e-05
-1.88065e-05
-1.88051e-05
-1.8804e-05
-1.88029e-05
-1.8802e-05
-1.88012e-05
-1.88004e-05
-1.87996e-05
-1.87988e-05
-1.87979e-05
-1.87971e-05
-1.87964e-05
-1.87959e-05
-1.87956e-05
-1.87793e-05
-1.87793e-05
-1.87793e-05
-1.88034e-05
-1.88144e-05
-1.88202e-05
-1.88267e-05
-1.88325e-05
-1.88392e-05
-1.8843e-05
-1.88445e-05
-1.88442e-05
-1.88423e-05
-1.88388e-05
-1.88336e-05
-1.88294e-05
-1.88261e-05
-1.88247e-05
-1.88259e-05
-1.88287e-05
-1.88317e-05
-1.88366e-05
-1.88403e-05
-1.8843e-05
-1.88449e-05
-1.88461e-05
-1.88468e-05
-1.8847e-05
-1.88469e-05
-1.88464e-05
-1.88455e-05
-1.88442e-05
-1.88426e-05
-1.88406e-05
-1.88382e-05
-1.88354e-05
-1.88323e-05
-1.88304e-05
-1.88282e-05
-1.88258e-05
-1.88231e-05
-1.88203e-05
-1.88174e-05
-1.88144e-05
-1.88114e-05
-1.88088e-05
-1.88068e-05
-1.88051e-05
-1.88037e-05
-1.88025e-05
-1.88015e-05
-1.88005e-05
-1.87996e-05
-1.87988e-05
-1.8798e-05
-1.87971e-05
-1.87963e-05
-1.87956e-05
-1.87951e-05
-1.87948e-05
-1.87793e-05
-1.87793e-05
-1.87793e-05
-1.88037e-05
-1.88142e-05
-1.88191e-05
-1.88249e-05
-1.8831e-05
-1.88369e-05
-1.88417e-05
-1.88442e-05
-1.88449e-05
-1.88441e-05
-1.88418e-05
-1.88381e-05
-1.88328e-05
-1.8829e-05
-1.88259e-05
-1.88245e-05
-1.88257e-05
-1.88285e-05
-1.88315e-05
-1.88362e-05
-1.88401e-05
-1.88429e-05
-1.88449e-05
-1.88462e-05
-1.8847e-05
-1.88473e-05
-1.88472e-05
-1.88468e-05
-1.8846e-05
-1.88448e-05
-1.88432e-05
-1.88412e-05
-1.88388e-05
-1.8836e-05
-1.88327e-05
-1.88306e-05
-1.88283e-05
-1.88257e-05
-1.88228e-05
-1.88198e-05
-1.88165e-05
-1.88132e-05
-1.881e-05
-1.88074e-05
-1.88053e-05
-1.88036e-05
-1.88022e-05
-1.8801e-05
-1.88e-05
-1.8799e-05
-1.87981e-05
-1.87972e-05
-1.87964e-05
-1.87955e-05
-1.87948e-05
-1.87943e-05
-1.8794e-05
-1.87793e-05
-1.87793e-05
-1.87793e-05
-1.8804e-05
-1.8814e-05
-1.88182e-05
-1.88232e-05
-1.88293e-05
-1.88343e-05
-1.88399e-05
-1.88433e-05
-1.88449e-05
-1.8845e-05
-1.88439e-05
-1.88414e-05
-1.88375e-05
-1.88322e-05
-1.88287e-05
-1.88257e-05
-1.88244e-05
-1.88256e-05
-1.88283e-05
-1.88313e-05
-1.88359e-05
-1.88398e-05
-1.88428e-05
-1.88448e-05
-1.88462e-05
-1.88471e-05
-1.88475e-05
-1.88475e-05
-1.88471e-05
-1.88463e-05
-1.88452e-05
-1.88436e-05
-1.88417e-05
-1.88392e-05
-1.88363e-05
-1.8833e-05
-1.88307e-05
-1.88283e-05
-1.88255e-05
-1.88223e-05
-1.8819e-05
-1.88154e-05
-1.88117e-05
-1.88083e-05
-1.88058e-05
-1.88037e-05
-1.88021e-05
-1.88007e-05
-1.87995e-05
-1.87985e-05
-1.87975e-05
-1.87966e-05
-1.87957e-05
-1.87948e-05
-1.87941e-05
-1.87936e-05
-1.87934e-05
-1.87793e-05
-1.87793e-05
-1.87793e-05
-1.88043e-05
-1.88138e-05
-1.88173e-05
-1.88218e-05
-1.88276e-05
-1.88321e-05
-1.88378e-05
-1.8842e-05
-1.88444e-05
-1.88453e-05
-1.8845e-05
-1.88436e-05
-1.8841e-05
-1.8837e-05
-1.88317e-05
-1.88285e-05
-1.88256e-05
-1.88244e-05
-1.88255e-05
-1.88282e-05
-1.88311e-05
-1.88357e-05
-1.88396e-05
-1.88426e-05
-1.88447e-05
-1.88462e-05
-1.88471e-05
-1.88475e-05
-1.88476e-05
-1.88473e-05
-1.88465e-05
-1.88454e-05
-1.88439e-05
-1.88419e-05
-1.88395e-05
-1.88365e-05
-1.8833e-05
-1.88306e-05
-1.8828e-05
-1.8825e-05
-1.88216e-05
-1.88179e-05
-1.88139e-05
-1.88098e-05
-1.88065e-05
-1.88041e-05
-1.88021e-05
-1.88005e-05
-1.87992e-05
-1.8798e-05
-1.87969e-05
-1.8796e-05
-1.8795e-05
-1.87942e-05
-1.87935e-05
-1.8793e-05
-1.87928e-05
-1.87793e-05
-1.87793e-05
-1.87793e-05
-1.88046e-05
-1.88137e-05
-1.88166e-05
-1.88205e-05
-1.8826e-05
-1.88305e-05
-1.88354e-05
-1.88402e-05
-1.88434e-05
-1.88451e-05
-1.88456e-05
-1.8845e-05
-1.88434e-05
-1.88406e-05
-1.88366e-05
-1.88315e-05
-1.88283e-05
-1.88255e-05
-1.88244e-05
-1.88255e-05
-1.88281e-05
-1.8831e-05
-1.88354e-05
-1.88394e-05
-1.88424e-05
-1.88446e-05
-1.88461e-05
-1.8847e-05
-1.88475e-05
-1.88476e-05
-1.88473e-05
-1.88466e-05
-1.88455e-05
-1.8844e-05
-1.8842e-05
-1.88395e-05
-1.88365e-05
-1.88329e-05
-1.88304e-05
-1.88276e-05
-1.88243e-05
-1.88206e-05
-1.88164e-05
-1.88119e-05
-1.88078e-05
-1.88047e-05
-1.88023e-05
-1.88005e-05
-1.87989e-05
-1.87976e-05
-1.87965e-05
-1.87954e-05
-1.87945e-05
-1.87937e-05
-1.8793e-05
-1.87925e-05
-1.87923e-05
-1.87793e-05
-1.87793e-05
-1.87793e-05
-1.88048e-05
-1.88136e-05
-1.8816e-05
-1.88193e-05
-1.88245e-05
-1.88289e-05
-1.88328e-05
-1.88382e-05
-1.8842e-05
-1.88444e-05
-1.88456e-05
-1.88458e-05
-1.8845e-05
-1.88432e-05
-1.88403e-05
-1.88362e-05
-1.88313e-05
-1.88282e-05
-1.88255e-05
-1.88244e-05
-1.88255e-05
-1.8828e-05
-1.88308e-05
-1.88351e-05
-1.88391e-05
-1.88421e-05
-1.88443e-05
-1.88459e-05
-1.88468e-05
-1.88474e-05
-1.88475e-05
-1.88472e-05
-1.88465e-05
-1.88455e-05
-1.8844e-05
-1.8842e-05
-1.88395e-05
-1.88363e-05
-1.88325e-05
-1.883e-05
-1.8827e-05
-1.88234e-05
-1.88192e-05
-1.88146e-05
-1.88096e-05
-1.88057e-05
-1.88028e-05
-1.88006e-05
-1.87989e-05
-1.87974e-05
-1.87961e-05
-1.8795e-05
-1.8794e-05
-1.87932e-05
-1.87925e-05
-1.87921e-05
-1.87918e-05
-1.87793e-05
-1.87793e-05
-1.87793e-05
-1.88051e-05
-1.88135e-05
-1.88155e-05
-1.88183e-05
-1.8823e-05
-1.88273e-05
-1.88312e-05
-1.88359e-05
-1.88403e-05
-1.88434e-05
-1.88452e-05
-1.8846e-05
-1.88459e-05
-1.8845e-05
-1.8843e-05
-1.88401e-05
-1.88359e-05
-1.88311e-05
-1.88281e-05
-1.88255e-05
-1.88244e-05
-1.88254e-05
-1.88278e-05
-1.88306e-05
-1.88348e-05
-1.88387e-05
-1.88418e-05
-1.8844e-05
-1.88455e-05
-1.88465e-05
-1.88471e-05
-1.88472e-05
-1.8847e-05
-1.88464e-05
-1.88454e-05
-1.88439e-05
-1.88419e-05
-1.88392e-05
-1.88359e-05
-1.88321e-05
-1.88295e-05
-1.88262e-05
-1.88222e-05
-1.88175e-05
-1.88122e-05
-1.88073e-05
-1.88037e-05
-1.8801e-05
-1.87989e-05
-1.87972e-05
-1.87958e-05
-1.87946e-05
-1.87936e-05
-1.87928e-05
-1.87921e-05
-1.87917e-05
-1.87915e-05
-1.87793e-05
-1.87793e-05
-1.87793e-05
-1.88053e-05
-1.88135e-05
-1.88151e-05
-1.88174e-05
-1.88217e-05
-1.88258e-05
-1.88297e-05
-1.88333e-05
-1.88383e-05
-1.88419e-05
-1.88444e-05
-1.88458e-05
-1.88463e-05
-1.8846e-05
-1.88449e-05
-1.88429e-05
-1.88398e-05
-1.88357e-05
-1.8831e-05
-1.8828e-05
-1.88254e-05
-1.88243e-05
-1.88253e-05
-1.88276e-05
-1.88303e-05
-1.88343e-05
-1.88382e-05
-1.88413e-05
-1.88435e-05
-1.8845e-05
-1.88461e-05
-1.88467e-05
-1.88469e-05
-1.88467e-05
-1.88462e-05
-1.88452e-05
-1.88436e-05
-1.88416e-05
-1.88388e-05
-1.88353e-05
-1.88316e-05
-1.88287e-05
-1.88251e-05
-1.88206e-05
-1.88154e-05
-1.88095e-05
-1.88049e-05
-1.88017e-05
-1.87992e-05
-1.87972e-05
-1.87957e-05
-1.87944e-05
-1.87933e-05
-1.87925e-05
-1.87918e-05
-1.87914e-05
-1.87912e-05
-1.87793e-05
-1.87793e-05
-1.87793e-05
-1.88055e-05
-1.88135e-05
-1.88147e-05
-1.88167e-05
-1.88205e-05
-1.88243e-05
-1.88282e-05
-1.88316e-05
-1.8836e-05
-1.88402e-05
-1.88432e-05
-1.88452e-05
-1.88463e-05
-1.88466e-05
-1.88461e-05
-1.88449e-05
-1.88428e-05
-1.88396e-05
-1.88354e-05
-1.88308e-05
-1.88278e-05
-1.88253e-05
-1.88242e-05
-1.8825e-05
-1.88272e-05
-1.88299e-05
-1.88336e-05
-1.88375e-05
-1.88405e-05
-1.88428e-05
-1.88444e-05
-1.88456e-05
-1.88463e-05
-1.88465e-05
-1.88464e-05
-1.88459e-05
-1.88448e-05
-1.88433e-05
-1.88411e-05
-1.88382e-05
-1.88345e-05
-1.8831e-05
-1.88278e-05
-1.88237e-05
-1.88187e-05
-1.88126e-05
-1.88068e-05
-1.88026e-05
-1.87997e-05
-1.87974e-05
-1.87956e-05
-1.87942e-05
-1.87931e-05
-1.87923e-05
-1.87916e-05
-1.87912e-05
-1.8791e-05
-1.87793e-05
-1.87793e-05
-1.87793e-05
-1.88057e-05
-1.88134e-05
-1.88144e-05
-1.8816e-05
-1.88195e-05
-1.88229e-05
-1.88266e-05
-1.88301e-05
-1.88335e-05
-1.88381e-05
-1.88417e-05
-1.88443e-05
-1.88459e-05
-1.88467e-05
-1.88468e-05
-1.88462e-05
-1.88448e-05
-1.88426e-05
-1.88394e-05
-1.88351e-05
-1.88306e-05
-1.88276e-05
-1.8825e-05
-1.88238e-05
-1.88246e-05
-1.88267e-05
-1.88293e-05
-1.88327e-05
-1.88366e-05
-1.88397e-05
-1.88421e-05
-1.88438e-05
-1.88451e-05
-1.88458e-05
-1.88461e-05
-1.8846e-05
-1.88455e-05
-1.88444e-05
-1.88428e-05
-1.88405e-05
-1.88374e-05
-1.88335e-05
-1.88302e-05
-1.88266e-05
-1.8822e-05
-1.88162e-05
-1.88094e-05
-1.88041e-05
-1.88004e-05
-1.87977e-05
-1.87957e-05
-1.87942e-05
-1.8793e-05
-1.87921e-05
-1.87915e-05
-1.87911e-05
-1.8791e-05
-1.87793e-05
-1.87793e-05
-1.87793e-05
-1.88059e-05
-1.88134e-05
-1.88141e-05
-1.88155e-05
-1.88186e-05
-1.88216e-05
-1.88251e-05
-1.88286e-05
-1.88316e-05
-1.88359e-05
-1.88399e-05
-1.88429e-05
-1.88451e-05
-1.88464e-05
-1.8847e-05
-1.8847e-05
-1.88462e-05
-1.88447e-05
-1.88424e-05
-1.88391e-05
-1.88348e-05
-1.88303e-05
-1.88272e-05
-1.88246e-05
-1.88233e-05
-1.88239e-05
-1.88259e-05
-1.88285e-05
-1.88315e-05
-1.88355e-05
-1.88388e-05
-1.88413e-05
-1.88432e-05
-1.88444e-05
-1.88452e-05
-1.88456e-05
-1.88455e-05
-1.8845e-05
-1.88439e-05
-1.88422e-05
-1.88397e-05
-1.88365e-05
-1.88322e-05
-1.88291e-05
-1.88251e-05
-1.88198e-05
-1.88131e-05
-1.88062e-05
-1.88015e-05
-1.87983e-05
-1.8796e-05
-1.87943e-05
-1.8793e-05
-1.87922e-05
-1.87915e-05
-1.87912e-05
-1.8791e-05
-1.87793e-05
-1.87793e-05
-1.87793e-05
-1.88061e-05
-1.88134e-05
-1.88139e-05
-1.8815e-05
-1.88177e-05
-1.88204e-05
-1.88236e-05
-1.8827e-05
-1.88302e-05
-1.88334e-05
-1.88378e-05
-1.88413e-05
-1.8844e-05
-1.88458e-05
-1.88469e-05
-1.88473e-05
-1.88471e-05
-1.88462e-05
-1.88446e-05
-1.88421e-05
-1.88387e-05
-1.88343e-05
-1.88299e-05
-1.88267e-05
-1.88239e-05
-1.88224e-05
-1.88229e-05
-1.88249e-05
-1.88275e-05
-1.88301e-05
-1.88344e-05
-1.88378e-05
-1.88404e-05
-1.88424e-05
-1.88437e-05
-1.88446e-05
-1.88449e-05
-1.88449e-05
-1.88443e-05
-1.88432e-05
-1.88414e-05
-1.88388e-05
-1.88353e-05
-1.88312e-05
-1.88279e-05
-1.88233e-05
-1.8817e-05
-1.88092e-05
-1.88032e-05
-1.87992e-05
-1.87965e-05
-1.87945e-05
-1.87932e-05
-1.87923e-05
-1.87917e-05
-1.87913e-05
-1.87911e-05
-1.87793e-05
-1.87793e-05
-1.87795e-05
-1.88062e-05
-1.88134e-05
-1.88136e-05
-1.88145e-05
-1.8817e-05
-1.88193e-05
-1.88223e-05
-1.88255e-05
-1.88287e-05
-1.88315e-05
-1.88354e-05
-1.88394e-05
-1.88425e-05
-1.88448e-05
-1.88464e-05
-1.88472e-05
-1.88475e-05
-1.88471e-05
-1.88461e-05
-1.88443e-05
-1.88418e-05
-1.88382e-05
-1.88336e-05
-1.88293e-05
-1.88259e-05
-1.88229e-05
-1.88214e-05
-1.88217e-05
-1.88236e-05
-1.88264e-05
-1.88291e-05
-1.8833e-05
-1.88367e-05
-1.88395e-05
-1.88415e-05
-1.88429e-05
-1.88438e-05
-1.88442e-05
-1.88441e-05
-1.88436e-05
-1.88425e-05
-1.88406e-05
-1.88378e-05
-1.8834e-05
-1.88302e-05
-1.88263e-05
-1.88209e-05
-1.88134e-05
-1.88056e-05
-1.88005e-05
-1.87972e-05
-1.8795e-05
-1.87936e-05
-1.87926e-05
-1.8792e-05
-1.87916e-05
-1.87914e-05
-1.87793e-05
-1.87793e-05
-1.87799e-05
-1.88064e-05
-1.88134e-05
-1.88134e-05
-1.88141e-05
-1.88163e-05
-1.88183e-05
-1.8821e-05
-1.8824e-05
-1.88271e-05
-1.88301e-05
-1.88329e-05
-1.88372e-05
-1.88407e-05
-1.88435e-05
-1.88455e-05
-1.88468e-05
-1.88475e-05
-1.88475e-05
-1.8847e-05
-1.88459e-05
-1.8844e-05
-1.88413e-05
-1.88375e-05
-1.88327e-05
-1.88285e-05
-1.88249e-05
-1.88217e-05
-1.88198e-05
-1.88199e-05
-1.88219e-05
-1.88249e-05
-1.88279e-05
-1.88315e-05
-1.88354e-05
-1.88384e-05
-1.88405e-05
-1.8842e-05
-1.8843e-05
-1.88434e-05
-1.88433e-05
-1.88427e-05
-1.88416e-05
-1.88396e-05
-1.88366e-05
-1.88324e-05
-1.88289e-05
-1.88244e-05
-1.88178e-05
-1.8809e-05
-1.88025e-05
-1.87984e-05
-1.87958e-05
-1.87942e-05
-1.87931e-05
-1.87924e-05
-1.8792e-05
-1.87918e-05
-1.87793e-05
-1.87793e-05
-1.87803e-05
-1.88065e-05
-1.88133e-05
-1.88132e-05
-1.88137e-05
-1.88157e-05
-1.88174e-05
-1.88198e-05
-1.88225e-05
-1.88255e-05
-1.88285e-05
-1.88312e-05
-1.88347e-05
-1.88386e-05
-1.88418e-05
-1.88442e-05
-1.8846e-05
-1.88471e-05
-1.88476e-05
-1.88475e-05
-1.88468e-05
-1.88455e-05
-1.88435e-05
-1.88405e-05
-1.88366e-05
-1.88315e-05
-1.88275e-05
-1.88236e-05
-1.88199e-05
-1.88176e-05
-1.88176e-05
-1.88198e-05
-1.88232e-05
-1.88265e-05
-1.88297e-05
-1.88339e-05
-1.88371e-05
-1.88395e-05
-1.88411e-05
-1.88421e-05
-1.88425e-05
-1.88424e-05
-1.88418e-05
-1.88406e-05
-1.88385e-05
-1.88353e-05
-1.88309e-05
-1.88273e-05
-1.88219e-05
-1.8814e-05
-1.88054e-05
-1.88002e-05
-1.8797e-05
-1.87951e-05
-1.87939e-05
-1.87931e-05
-1.87927e-05
-1.87925e-05
-1.87793e-05
-1.87793e-05
-1.87807e-05
-1.88066e-05
-1.88133e-05
-1.8813e-05
-1.88134e-05
-1.88151e-05
-1.88166e-05
-1.88186e-05
-1.88211e-05
-1.88239e-05
-1.88268e-05
-1.88296e-05
-1.88322e-05
-1.88361e-05
-1.88397e-05
-1.88426e-05
-1.88448e-05
-1.88463e-05
-1.88473e-05
-1.88476e-05
-1.88474e-05
-1.88465e-05
-1.8845e-05
-1.88428e-05
-1.88397e-05
-1.88355e-05
-1.88301e-05
-1.88264e-05
-1.88219e-05
-1.88176e-05
-1.88149e-05
-1.88148e-05
-1.88173e-05
-1.88211e-05
-1.88249e-05
-1.8828e-05
-1.88324e-05
-1.88358e-05
-1.88383e-05
-1.88401e-05
-1.88411e-05
-1.88416e-05
-1.88415e-05
-1.88408e-05
-1.88395e-05
-1.88373e-05
-1.88337e-05
-1.88297e-05
-1.88254e-05
-1.88188e-05
-1.88097e-05
-1.88028e-05
-1.87988e-05
-1.87964e-05
-1.8795e-05
-1.87941e-05
-1.87936e-05
-1.87934e-05
-1.87793e-05
-1.87793e-05
-1.8781e-05
-1.88067e-05
-1.88133e-05
-1.88128e-05
-1.88131e-05
-1.88146e-05
-1.88158e-05
-1.88175e-05
-1.88197e-05
-1.88223e-05
-1.88251e-05
-1.88279e-05
-1.88306e-05
-1.88334e-05
-1.88373e-05
-1.88406e-05
-1.88432e-05
-1.88452e-05
-1.88465e-05
-1.88473e-05
-1.88475e-05
-1.88471e-05
-1.88461e-05
-1.88444e-05
-1.88421e-05
-1.88388e-05
-1.88344e-05
-1.88291e-05
-1.88249e-05
-1.88198e-05
-1.88148e-05
-1.88116e-05
-1.88115e-05
-1.88143e-05
-1.88187e-05
-1.88231e-05
-1.88267e-05
-1.88307e-05
-1.88344e-05
-1.88371e-05
-1.8839e-05
-1.88401e-05
-1.88406e-05
-1.88405e-05
-1.88398e-05
-1.88383e-05
-1.8836e-05
-1.88319e-05
-1.88283e-05
-1.88232e-05
-1.88156e-05
-1.88068e-05
-1.88015e-05
-1.87984e-05
-1.87966e-05
-1.87956e-05
-1.8795e-05
-1.87947e-05
-1.87793e-05
-1.87793e-05
-1.87813e-05
-1.88067e-05
-1.88132e-05
-1.88126e-05
-1.88127e-05
-1.88141e-05
-1.8815e-05
-1.88165e-05
-1.88184e-05
-1.88207e-05
-1.88233e-05
-1.88261e-05
-1.88288e-05
-1.88313e-05
-1.88345e-05
-1.88382e-05
-1.88412e-05
-1.88436e-05
-1.88454e-05
-1.88466e-05
-1.88472e-05
-1.88472e-05
-1.88467e-05
-1.88456e-05
-1.88438e-05
-1.88413e-05
-1.88378e-05
-1.8833e-05
-1.88279e-05
-1.88232e-05
-1.88173e-05
-1.88115e-05
-1.88077e-05
-1.88076e-05
-1.8811e-05
-1.88161e-05
-1.88211e-05
-1.88251e-05
-1.88289e-05
-1.8833e-05
-1.88359e-05
-1.88378e-05
-1.8839e-05
-1.88396e-05
-1.88394e-05
-1.88386e-05
-1.88371e-05
-1.88345e-05
-1.88305e-05
-1.88267e-05
-1.8821e-05
-1.8813e-05
-1.88056e-05
-1.88014e-05
-1.8799e-05
-1.87976e-05
-1.87969e-05
-1.87965e-05
-1.87793e-05
-1.87793e-05
-1.87816e-05
-1.88068e-05
-1.88132e-05
-1.88124e-05
-1.88124e-05
-1.88136e-05
-1.88143e-05
-1.88155e-05
-1.88171e-05
-1.88191e-05
-1.88215e-05
-1.88242e-05
-1.88269e-05
-1.88295e-05
-1.88319e-05
-1.88354e-05
-1.88388e-05
-1.88417e-05
-1.88439e-05
-1.88455e-05
-1.88465e-05
-1.8847e-05
-1.88469e-05
-1.88463e-05
-1.88451e-05
-1.88432e-05
-1.88404e-05
-1.88367e-05
-1.88315e-05
-1.88265e-05
-1.88211e-05
-1.88143e-05
-1.88076e-05
-1.8804e-05
-1.88038e-05
-1.88072e-05
-1.88132e-05
-1.88189e-05
-1.88235e-05
-1.88271e-05
-1.88314e-05
-1.88345e-05
-1.88366e-05
-1.88379e-05
-1.88384e-05
-1.88382e-05
-1.88374e-05
-1.88357e-05
-1.88329e-05
-1.88294e-05
-1.88253e-05
-1.88194e-05
-1.88121e-05
-1.8806e-05
-1.88027e-05
-1.88007e-05
-1.87996e-05
-1.87991e-05
-1.87793e-05
-1.87793e-05
-1.87818e-05
-1.88068e-05
-1.88131e-05
-1.88122e-05
-1.88121e-05
-1.88131e-05
-1.88136e-05
-1.88146e-05
-1.88159e-05
-1.88176e-05
-1.88198e-05
-1.88222e-05
-1.88249e-05
-1.88275e-05
-1.88301e-05
-1.88323e-05
-1.8836e-05
-1.88392e-05
-1.88419e-05
-1.8844e-05
-1.88455e-05
-1.88464e-05
-1.88467e-05
-1.88466e-05
-1.88458e-05
-1.88444e-05
-1.88424e-05
-1.88395e-05
-1.88354e-05
-1.88297e-05
-1.88249e-05
-1.88187e-05
-1.8811e-05
-1.88038e-05
-1.88007e-05
-1.88006e-05
-1.88035e-05
-1.88099e-05
-1.88166e-05
-1.88217e-05
-1.88254e-05
-1.88298e-05
-1.88331e-05
-1.88353e-05
-1.88366e-05
-1.88372e-05
-1.8837e-05
-1.88361e-05
-1.88345e-05
-1.88315e-05
-1.88286e-05
-1.88246e-05
-1.88193e-05
-1.88134e-05
-1.88083e-05
-1.88054e-05
-1.88038e-05
-1.88031e-05
-1.87793e-05
-1.87793e-05
-1.87819e-05
-1.88069e-05
-1.8813e-05
-1.88121e-05
-1.88118e-05
-1.88126e-05
-1.8813e-05
-1.88137e-05
-1.88147e-05
-1.88162e-05
-1.8818e-05
-1.88203e-05
-1.88227e-05
-1.88254e-05
-1.8828e-05
-1.88304e-05
-1.88327e-05
-1.88363e-05
-1.88395e-05
-1.8842e-05
-1.8844e-05
-1.88454e-05
-1.88462e-05
-1.88464e-05
-1.88461e-05
-1.88452e-05
-1.88437e-05
-1.88415e-05
-1.88384e-05
-1.88339e-05
-1.8828e-05
-1.88231e-05
-1.88161e-05