/*--------------------------------*- C++ -*----------------------------------*\
| =========                 |                                                 |
| \\      /  F ield         | OpenFOAM: The Open Source CFD Toolbox           |
|  \\    /   O peration     | Version:  2212                                  |
|   \\  /    A nd           | Website:  www.openfoam.com                      |
|    \\/     M anipulation  |                                                 |
\*---------------------------------------------------------------------------*/
FoamFile
{
    version     2.0;
    format      ascii;
    arch        "LSB;label=32;scalar=64";
    class       volScalarField;
    location    "1";
    object      k;
}
// * * * * * * * * * * * * * * * * * * * * * * * * * * * * * * * * * * * * * //

dimensions      [0 2 -2 0 0 0 0];

internalField   nonuniform List<scalar> 
3600
(
1.37391e-07
6.63221e-07
1.82837e-06
3.72926e-06
6.48223e-06
1.01601e-05
1.47135e-05
1.99211e-05
2.54385e-05
3.0907e-05
3.60553e-05
4.07387e-05
4.49301e-05
4.86796e-05
5.20744e-05
5.52059e-05
5.81521e-05
6.09685e-05
6.36907e-05
6.63447e-05
6.8942e-05
7.14763e-05
7.39438e-05
7.63468e-05
7.86842e-05
8.09516e-05
8.31429e-05
8.52508e-05
8.72679e-05
8.91864e-05
9.09977e-05
9.26927e-05
9.42613e-05
9.56931e-05
9.69792e-05
9.81146e-05
9.90985e-05
9.99339e-05
0.000100626
0.000101182
0.00010161
0.000101917
0.000102111
0.000102192
0.00010216
0.00010202
0.000101757
0.000101369
0.000100847
0.000100179
9.93469e-05
9.83285e-05
9.70904e-05
9.55955e-05
9.38046e-05
9.16964e-05
8.93109e-05
8.68239e-05
8.46247e-05
8.32785e-05
6.63221e-07
3.06727e-07
1.13864e-06
3.236e-06
7.0249e-06
1.26253e-05
1.97188e-05
2.76708e-05
3.57484e-05
4.33909e-05
5.03047e-05
5.64349e-05
6.18833e-05
6.68158e-05
7.14011e-05
7.57762e-05
8.00369e-05
8.42376e-05
8.8402e-05
9.25358e-05
9.66309e-05
0.00010068
0.000104676
0.000108616
0.000112488
0.000116281
0.000119979
0.000123566
0.000127025
0.000130338
0.000133488
0.000136454
0.000139214
0.000141749
0.000144043
0.000146083
0.000147867
0.000149394
0.000150671
0.00015171
0.000152519
0.000153106
0.000153478
0.000153635
0.000153574
0.000153318
0.000152816
0.000152078
0.000151089
0.000149826
0.000148263
0.000146364
0.000144083
0.000141375
0.000138201
0.000134578
0.000130631
0.000126689
0.000123345
0.000121363
1.82837e-06
1.13864e-06
6.02358e-06
1.98776e-05
4.61667e-05
8.54379e-05
0.000134753
0.00018892
0.000242952
0.00029331
0.000338377
0.000378084
0.000413273
0.000445112
0.000474711
0.000502949
0.000530422
0.000557468
0.000584225
0.000610696
0.000636812
0.000662572
0.000687941
0.000712894
0.000737363
0.00076127
0.000784523
0.000807027
0.000828685
0.000849388
0.00086903
0.000887497
0.000904656
0.000920394
0.000934624
0.000947277
0.000958339
0.000967787
0.000975693
0.000982126
0.000987142
0.000990783
0.000993094
0.000994068
0.000993695
0.000992116
0.000989013
0.000984443
0.00097832
0.000970495
0.000960803
0.00094903
0.00093488
0.000918081
0.000898411
0.000875977
0.000851594
0.000827313
0.000806782
0.000794646
3.72926e-06
3.236e-06
1.98776e-05
7.09921e-05
0.0001717
0.000318696
0.000492976
0.000672726
0.000842235
0.000993282
0.00112404
0.0012366
0.00133469
0.00142225
0.00150261
0.00157826
0.00165085
0.00172133
0.00179013
0.00185723
0.00192249
0.00198616
0.00204824
0.00210869
0.00216741
0.00222425
0.00227907
0.00233171
0.00238199
0.00242973
0.00247474
0.00251681
0.0025557
0.00259122
0.00262323
0.00265164
0.00267643
0.00269762
0.00271537
0.00272982
0.00274111
0.00274933
0.00275457
0.00275682
0.00275606
0.00275263
0.00274579
0.00273568
0.0027221
0.00270471
0.00268311
0.00265683
0.00262519
0.00258758
0.0025435
0.00249323
0.00243868
0.00238449
0.0023388
0.00231185
6.48223e-06
7.0249e-06
4.61667e-05
0.0001717
0.00041822
0.000749088
0.0010992
0.00142517
0.0017089
0.00194755
0.00214644
0.00231387
0.002458
0.00258575
0.0027023
0.00281126
0.00291497
0.00301478
0.00311135
0.00320466
0.0032946
0.00338172
0.00346614
0.00354783
0.00362671
0.00370268
0.00377558
0.00384529
0.00391163
0.00397438
0.00403338
0.00408839
0.00413914
0.00418544
0.00422717
0.00426423
0.00429662
0.00432438
0.00434771
0.00436679
0.00438176
0.00439271
0.00439975
0.00440287
0.00440204
0.00439773
0.00438896
0.00437591
0.00435835
0.00433581
0.0043078
0.00427375
0.00423279
0.00418424
0.00412761
0.00406349
0.00399464
0.00392715
0.00387101
0.00383828
1.01601e-05
1.26253e-05
8.54379e-05
0.000318696
0.000749088
0.00126505
0.00175677
0.00218035
0.00252886
0.00281091
0.00304068
0.00323201
0.00339619
0.00354181
0.00367481
0.00379918
0.00391737
0.00403079
0.00414014
0.00424564
0.00434732
0.00444543
0.00454015
0.0046315
0.00471942
0.00480386
0.0048847
0.00496184
0.00503513
0.00510437
0.00516939
0.00522997
0.00528584
0.00533686
0.00538291
0.00542389
0.00545983
0.00549077
0.00551689
0.00553837
0.00555532
0.00556783
0.00557595
0.00557969
0.00557902
0.00557447
0.00556496
0.00555067
0.00553139
0.00550662
0.00547582
0.00543844
0.00539363
0.00534079
0.00527963
0.00521121
0.00513891
0.00506946
0.00501293
0.00498055
1.47135e-05
1.97188e-05
0.000134753
0.000492976
0.00109921
0.00175677
0.00233919
0.00281729
0.00319635
0.00349579
0.00373629
0.00393513
0.00410538
0.00425642
0.00439451
0.00452376
0.00464664
0.00476452
0.00487808
0.00498754
0.00509296
0.00519453
0.00529243
0.00538669
0.00547729
0.0055642
0.00564732
0.00572657
0.00580183
0.0058729
0.00593964
0.00600182
0.00605922
0.0061117
0.0061592
0.00620161
0.00623897
0.00627127
0.00629871
0.00632144
0.00633952
0.00635299
0.00636186
0.00636612
0.00636575
0.00636131
0.00635169
0.00633705
0.00631724
0.00629172
0.00626001
0.00622162
0.00617582
0.00612222
0.00606084
0.00599325
0.00592341
0.00585816
0.00580665
0.00577792
1.99211e-05
2.76709e-05
0.00018892
0.000672727
0.00142517
0.00218035
0.00281729
0.00332301
0.00371539
0.00402114
0.00426447
0.00446431
0.00463453
0.00478489
0.00492195
0.00504999
0.00517163
0.00528833
0.00540081
0.00550934
0.005614
0.00571492
0.00581222
0.00590588
0.0059959
0.00608224
0.00616481
0.00624354
0.0063183
0.00638892
0.00645525
0.0065171
0.00657425
0.00662661
0.00667414
0.00671673
0.00675443
0.0067872
0.00681524
0.00683865
0.00685744
0.00687158
0.00688105
0.00688581
0.00688584
0.0068817
0.0068723
0.00685777
0.00683799
0.00681247
0.00678078
0.00674253
0.00669714
0.00664451
0.00658504
0.0065208
0.00645619
0.00639795
0.00635381
0.0063301
2.54386e-05
3.57485e-05
0.000242953
0.000842237
0.00170891
0.00252886
0.00319635
0.00371539
0.00411361
0.00442197
0.00466619
0.00486565
0.00503438
0.00518228
0.00531613
0.00544045
0.00555811
0.00567078
0.00577935
0.00588423
0.00598558
0.00608348
0.00617799
0.00626908
0.00635669
0.00644079
0.00652127
0.00659805
0.00667099
0.00673993
0.00680473
0.00686521
0.00692117
0.00697254
0.00701932
0.00706142
0.00709886
0.0071316
0.00715982
0.00718359
0.00720284
0.00721751
0.00722753
0.0072328
0.00723332
0.00722959
0.00722063
0.00720646
0.00718708
0.00716198
0.00713082
0.00709336
0.00704919
0.00699852
0.00694211
0.00688253
0.00682452
0.00677448
0.00673857
0.00672028
3.09071e-05
4.3391e-05
0.000293311
0.000993285
0.00194755
0.00281091
0.00349579
0.00402114
0.00442197
0.00473182
0.00497687
0.00517628
0.00534383
0.00548935
0.00561975
0.00573976
0.00585252
0.00595999
0.00606332
0.0061631
0.00625963
0.00635305
0.00644338
0.00653059
0.00661461
0.00669538
0.00677277
0.00684668
0.00691696
0.00698345
0.00704601
0.00710446
0.00715863
0.00720848
0.00725401
0.00729517
0.00733195
0.00736432
0.00739246
0.00741636
0.00743593
0.00745104
0.00746154
0.00746736
0.00746846
0.00746525
0.00745688
0.0074433
0.00742455
0.00740019
0.00736996
0.00733374
0.00729136
0.0072433
0.00719072
0.00713661
0.00708591
0.00704455
0.00701702
0.00700413
3.60555e-05
5.03049e-05
0.000338378
0.00112405
0.00214644
0.00304068
0.00373629
0.00426447
0.00466619
0.00497687
0.00522279
0.0054226
0.00558962
0.00573341
0.00586085
0.00597681
0.00608467
0.00618669
0.00628426
0.00637826
0.00646914
0.00655713
0.00664234
0.00672474
0.00680429
0.0068809
0.00695444
0.00702477
0.00709176
0.00715522
0.00721499
0.00727092
0.00732286
0.00737079
0.00741471
0.00745458
0.00749042
0.00752216
0.00755001
0.00757388
0.00759365
0.00760913
0.00762011
0.00762651
0.00762827
0.00762568
0.00761806
0.00760527
0.00758738
0.00756403
0.00753506
0.00750049
0.00746036
0.00741546
0.0073673
0.00731922
0.00727624
0.00724367
0.00722435
0.00721662
4.0739e-05
5.64352e-05
0.000378085
0.0012366
0.00231387
0.00323201
0.00393513
0.00446431
0.00486565
0.00517627
0.0054226
0.00562284
0.00578971
0.00593235
0.00605746
0.00616993
0.00627331
0.00637007
0.0064619
0.0065499
0.00663471
0.00671674
0.00679619
0.0068731
0.00694747
0.00701923
0.00708826
0.00715442
0.00721754
0.00727746
0.00733398
0.00738698
0.00743632
0.00748197
0.00752399
0.0075623
0.00759696
0.00762788
0.00765525
0.00767895
0.00769883
0.00771464
0.00772611
0.00773313
0.00773563
0.00773378
0.00772706
0.00771526
0.00769847
0.00767639
0.00764899
0.00761645
0.00757902
0.00753777
0.00749453
0.00745291
0.00741789
0.00739402
0.00738257
0.00737965
4.49304e-05
6.18835e-05
0.000413274
0.00133469
0.002458
0.00339619
0.00410538
0.00463453
0.00503438
0.00534382
0.00558962
0.0057897
0.00595629
0.00609804
0.00622131
0.00633087
0.00643031
0.00652225
0.0066086
0.00669066
0.00676931
0.00684511
0.0069184
0.00698934
0.00705798
0.00712431
0.00718825
0.00724966
0.0073084
0.00736427
0.0074171
0.00746678
0.00751316
0.00755623
0.00759606
0.00763257
0.00766585
0.00769577
0.00772251
0.00774595
0.00776586
0.00778196
0.00779394
0.00780164
0.00780499
0.007804
0.00779835
0.00778773
0.00777229
0.00775176
0.00772626
0.00769612
0.00766182
0.00762469
0.00758684
0.00755202
0.00752507
0.00750969
0.00750565
0.00750716
4.86799e-05
6.6816e-05
0.000445112
0.00142225
0.00258575
0.0035418
0.00425641
0.00478488
0.00518227
0.00548934
0.00573341
0.00593235
0.00609804
0.0062387
0.0063603
0.00646736
0.00656335
0.00665095
0.00673221
0.0068086
0.0068812
0.00695071
0.00701764
0.00708228
0.00714478
0.0072052
0.00726353
0.00731968
0.00737351
0.00742485
0.00747354
0.00751949
0.00756254
0.00760272
0.00764008
0.00767457
0.00770626
0.00773503
0.00776104
0.00778411
0.007804
0.00782039
0.0078329
0.00784135
0.00784565
0.00784569
0.00784127
0.00783206
0.00781822
0.00779954
0.00777627
0.00774893
0.0077182
0.00768562
0.00765357
0.00762584
0.00760698
0.0075998
0.00760267
0.00760819
5.20746e-05
7.14012e-05
0.000474711
0.00150261
0.00270229
0.00367481
0.00439451
0.00492194
0.00531612
0.00561974
0.00586084
0.00605745
0.00622131
0.0063603
0.00648003
0.0065847
0.00667757
0.00676127
0.00683786
0.00690892
0.00697569
0.00703902
0.00709955
0.00715773
0.00721381
0.00726796
0.00732025
0.00737065
0.00741908
0.00746541
0.00750948
0.00755126
0.0075906
0.00762754
0.00766214
0.00769437
0.00772428
0.00775174
0.00777691
0.00779955
0.00781939
0.00783606
0.00784914
0.00785842
0.0078638
0.00786506
0.00786202
0.00785449
0.00784253
0.00782601
0.00780534
0.00778118
0.00775444
0.00772687
0.00770098
0.00768057
0.00766975
0.0076704
0.00767964
0.00768875
5.52062e-05
7.57764e-05
0.000502949
0.00157826
0.00281126
0.00379917
0.00452375
0.00504999
0.00544044
0.00573976
0.0059768
0.00616993
0.00633087
0.00646736
0.0065847
0.00668679
0.00677664
0.0068567
0.00692897
0.00699507
0.0070563
0.00711365
0.00716788
0.00721956
0.00726908
0.00731671
0.0073626
0.00740686
0.00744943
0.00749025
0.00752922
0.00756636
0.00760158
0.00763493
0.00766648
0.00769618
0.00772407
0.00775007
0.00777427
0.00779639
0.00781615
0.00783311
0.00784682
0.00785704
0.00786363
0.00786631
0.00786486
0.00785925
0.00784945
0.00783544
0.00781775
0.00779718
0.00777487
0.00775273
0.00773334
0.00772039
0.0077175
0.00772557
0.00774064
0.00775291
5.81524e-05
8.00371e-05
0.000530424
0.00165086
0.00291497
0.00391737
0.00464664
0.00517163
0.00555811
0.00585252
0.00608467
0.00627331
0.00643031
0.00656335
0.00667758
0.00677664
0.00686331
0.0069398
0.00700798
0.0070694
0.00712538
0.007177
0.00722511
0.00727037
0.00731329
0.00735427
0.00739353
0.0074313
0.00746761
0.00750244
0.00753587
0.00756796
0.00759861
0.00762796
0.00765608
0.00768294
0.00770858
0.00773293
0.00775601
0.00777753
0.00779717
0.00781443
0.00782884
0.00784012
0.00784807
0.00785237
0.00785275
0.00784932
0.007842
0.00783084
0.00781651
0.00779996
0.0077825
0.00776618
0.00775359
0.00774819
0.00775303
0.00776811
0.00778845
0.00780348
6.09688e-05
8.42379e-05
0.00055747
0.00172134
0.00301478
0.00403079
0.00476452
0.00528833
0.00567078
0.00596
0.00618669
0.00637007
0.00652225
0.00665096
0.00676128
0.00685671
0.00693981
0.00701258
0.0070767
0.00713362
0.00718461
0.00723075
0.00727294
0.00731192
0.0073483
0.00738258
0.00741509
0.00744613
0.00747582
0.00750438
0.00753185
0.00755838
0.00758402
0.00760892
0.00763322
0.00765688
0.00767998
0.00770245
0.00772424
0.00774504
0.0077645
0.00778205
0.00779722
0.00780968
0.00781914
0.00782526
0.00782775
0.00782677
0.00782228
0.00781437
0.00780382
0.00779169
0.00777948
0.00776934
0.00776378
0.00776597
0.00777832
0.00779994
0.00782499
0.00784239
6.3691e-05
8.84025e-05
0.000584228
0.00179014
0.00311136
0.00414015
0.00487809
0.00540081
0.00577935
0.00606332
0.00628427
0.0064619
0.00660859
0.00673221
0.00683787
0.00692899
0.00700798
0.0070767
0.00713664
0.00718909
0.00723522
0.00727607
0.00731255
0.00734543
0.0073754
0.00740303
0.00742876
0.0074529
0.00747585
0.00749778
0.00751894
0.0075395
0.00755969
0.00757969
0.00759969
0.00761978
0.00763998
0.00766025
0.00768051
0.00770043
0.00771961
0.00773745
0.00775341
0.00776715
0.0077783
0.00778647
0.00779136
0.00779314
0.0077918
0.00778754
0.00778116
0.0077739
0.00776736
0.00776371
0.00776535
0.00777509
0.00779468
0.00782236
0.00785158
0.00787103
6.6345e-05
9.25366e-05
0.000610701
0.00185725
0.00320468
0.00424566
0.00498757
0.00550936
0.00588425
0.00616312
0.00637827
0.0065499
0.00669066
0.0068086
0.00690893
0.00699508
0.00706941
0.00713363
0.00718909
0.00723696
0.00727825
0.00731391
0.00734483
0.00737181
0.00739552
0.00741658
0.00743552
0.00745283
0.00746887
0.00748397
0.00749854
0.00751281
0.00752714
0.00754178
0.00755705
0.00757311
0.00758999
0.00760768
0.00762611
0.0076449
0.00766364
0.00768169
0.00769846
0.00771356
0.00772657
0.007737
0.0077446
0.00774947
0.00775166
0.00775146
0.00774971
0.00774772
0.00774721
0.00775033
0.00775931
0.00777651
0.00780303
0.00783627
0.00786916
0.00789032
6.89423e-05
9.66318e-05
0.000636818
0.00192251
0.00329463
0.00434735
0.00509299
0.00561403
0.0059856
0.00625965
0.00646915
0.00663472
0.00676931
0.00688119
0.00697568
0.0070563
0.00712539
0.0071846
0.00723521
0.00727824
0.00731457
0.00734507
0.00737052
0.0073917
0.0074093
0.00742391
0.00743622
0.00744669
0.0074558
0.00746402
0.00747183
0.00747954
0.00748766
0.00749656
0.00750666
0.00751825
0.00753133
0.00754598
0.00756218
0.00757951
0.00759753
0.00761564
0.00763317
0.00764969
0.00766467
0.00767758
0.00768819
0.00769651
0.00770264
0.00770692
0.00771023
0.00771395
0.0077198
0.00772992
0.00774631
0.00777085
0.00780392
0.00784223
0.00787832
0.00790091
7.14767e-05
0.000100681
0.000662578
0.00198617
0.00338174
0.00444545
0.00519455
0.00571494
0.0060835
0.00635306
0.00655714
0.00671675
0.00684511
0.00695071
0.00703901
0.00711364
0.00717699
0.00723073
0.00727605
0.00731389
0.00734505
0.00737028
0.00739027
0.0074057
0.00741726
0.00742559
0.00743138
0.00743511
0.0074374
0.00743871
0.00743969
0.00744068
0.00744236
0.00744523
0.00744978
0.00745639
0.00746518
0.00747631
0.00748977
0.00750521
0.00752215
0.00754005
0.00755822
0.00757612
0.00759316
0.00760873
0.00762263
0.00763476
0.00764521
0.00765443
0.00766324
0.00767308
0.00768564
0.00770296
0.00772676
0.00775843
0.00779773
0.00784063
0.00787945
0.00790318
7.39443e-05
0.000104677
0.000687949
0.00204826
0.00346616
0.00454018
0.00529245
0.00581223
0.00617801
0.00644339
0.00664234
0.00679619
0.0069184
0.00701764
0.00709955
0.00716787
0.0072251
0.00727293
0.00731253
0.0073448
0.00737049
0.00739023
0.00740465
0.00741438
0.00741995
0.00742212
0.0074215
0.00741865
0.0074142
0.00740871
0.00740284
0.0073971
0.00739221
0.0073888
0.00738751
0.00738875
0.00739277
0.00739986
0.00741
0.007423
0.00743838
0.0074557
0.00747423
0.00749339
0.00751248
0.00753087
0.00754828
0.00756454
0.00757973
0.0075943
0.00760907
0.00762543
0.007645
0.00766968
0.00770087
0.00773944
0.00778454
0.00783163
0.00787281
0.00789745
7.63474e-05
0.000108617
0.0007129
0.00210871
0.00354785
0.00463152
0.00538671
0.0059059
0.00626909
0.0065306
0.00672476
0.00687312
0.00698934
0.00708228
0.00715773
0.00721955
0.00727035
0.00731189
0.00734542
0.00737178
0.00739166
0.00740568
0.00741437
0.00741822
0.00741789
0.00741396
0.00740701
0.00739773
0.00738667
0.00737451
0.00736192
0.00734953
0.00733811
0.00732832
0.00732094
0.0073165
0.00731532
0.00731779
0.00732401
0.00733396
0.00734725
0.00736346
0.00738193
0.00740207
0.00742309
0.00744436
0.00746546
0.00748613
0.00750642
0.00752675
0.00754788
0.00757114
0.00759799
0.00763015
0.00766866
0.00771388
0.00776438
0.00781521
0.00785836
0.00788373
7.86847e-05
0.000112489
0.000737368
0.00216742
0.00362673
0.00471944
0.00547732
0.00599593
0.00635673
0.00661465
0.00680433
0.00694751
0.00705801
0.0071448
0.00721383
0.00726908
0.00731329
0.00734829
0.0073754
0.0073955
0.00740928
0.00741725
0.00741996
0.00741792
0.00741158
0.00740157
0.0073884
0.00737275
0.00735524
0.00733659
0.00731751
0.00729863
0.00728079
0.0072647
0.00725114
0.00724078
0.00723398
0.00723136
0.00723308
0.00723932
0.00724986
0.00726436
0.00728222
0.00730288
0.00732557
0.00734959
0.00737445
0.00739972
0.00742541
0.00745185
0.00747969
0.00751019
0.00754457
0.00758428
0.00763003
0.00768165
0.0077372
0.00779132
0.00783618
0.00786207
8.09521e-05
0.000116282
0.000761278
0.00222427
0.00370271
0.0048039
0.00556425
0.00608229
0.00644084
0.00669543
0.00688095
0.00701928
0.00712435
0.00720525
0.00726801
0.00731675
0.0073543
0.00738261
0.00740305
0.00741659
0.0074239
0.0074256
0.00742215
0.00741399
0.00740158
0.00738542
0.0073661
0.00734425
0.00732049
0.00729556
0.00727016
0.007245
0.00722094
0.00719868
0.00717897
0.00716254
0.0071499
0.0071418
0.00713852
0.00714039
0.00714746
0.00715953
0.00717608
0.00719671
0.00722061
0.00724711
0.0072756
0.00730556
0.00733682
0.00736963
0.00740448
0.0074425
0.00748458
0.00753187
0.00758471
0.00764251
0.00770273
0.00775979
0.00780608
0.00783236
8.31434e-05
0.00011998
0.000784532
0.0022791
0.00377562
0.00488474
0.00564737
0.00616486
0.00652133
0.00677283
0.00695449
0.00708832
0.0071883
0.0072636
0.00732032
0.00736267
0.00739359
0.00741515
0.0074288
0.00743554
0.00743623
0.0074314
0.00742152
0.00740705
0.00738842
0.00736611
0.00734066
0.00731272
0.00728288
0.00725192
0.00722048
0.00718931
0.00715922
0.0071309
0.00710506
0.00708255
0.00706402
0.0070502
0.00704152
0.00703849
0.00704145
0.00705034
0.00706483
0.00708464
0.00710912
0.00713756
0.00716939
0.0072039
0.00724079
0.00728009
0.00732214
0.00736783
0.00741774
0.00747261
0.00753242
0.00759606
0.00766063
0.00772034
0.00776784
0.00779443
8.52515e-05
0.000123568
0.00080704
0.00233174
0.00384534
0.0049619
0.00572664
0.00624361
0.00659812
0.00684675
0.00702484
0.00715449
0.00724973
0.00731975
0.00737072
0.00740691
0.00743134
0.00744617
0.00745294
0.00745286
0.00744673
0.00743515
0.00741866
0.00739772
0.00737278
0.00734428
0.00731273
0.00727879
0.00724305
0.00720626
0.00716903
0.00713205
0.00709606
0.00706178
0.00702995
0.00700136
0.00697688
0.00695728
0.0069431
0.00693487
0.00693321
0.0069382
0.00694985
0.00696799
0.00699222
0.00702191
0.00705651
0.00709518
0.00713751
0.00718325
0.00723253
0.00728594
0.00734368
0.00740606
0.00747265
0.00754189
0.00761051
0.00767266
0.00772119
0.00774806
8.72687e-05
0.000127026
0.000828693
0.00238201
0.00391165
0.00503516
0.00580187
0.00631834
0.00667104
0.00691702
0.00709182
0.00721761
0.00730847
0.00737358
0.00741915
0.00744948
0.00746765
0.00747587
0.00747589
0.00746891
0.00745584
0.00743745
0.00741423
0.00738669
0.00735527
0.00732053
0.00728291
0.00724307
0.00720161
0.00715912
0.00711625
0.00707359
0.00703186
0.00699173
0.00695402
0.00691953
0.00688914
0.00686377
0.00684394
0.00683037
0.00682379
0.00682448
0.00683255
0.00684821
0.00687126
0.00690127
0.00693779
0.00697997
0.00702726
0.00707917
0.00713553
0.00719655
0.00726201
0.00733174
0.00740495
0.00747953
0.00755198
0.00761627
0.00766574
0.00769283
8.91874e-05
0.00013034
0.000849402
0.00242977
0.00397443
0.00510442
0.00587297
0.00638899
0.00674001
0.00698354
0.0071553
0.00727754
0.00736435
0.00742493
0.00746548
0.0074903
0.0075025
0.00750443
0.00749783
0.00748402
0.00746406
0.00743876
0.00740875
0.00737453
0.00733665
0.00729561
0.00725198
0.00720629
0.00715913
0.00711105
0.00706266
0.00701444
0.00696708
0.00692122
0.00687781
0.00683754
0.00680135
0.00677022
0.00674472
0.00672569
0.00671404
0.00671007
0.00671418
0.00672665
0.00674763
0.00677695
0.00681434
0.00685906
0.00691055
0.00696806
0.00703106
0.00709937
0.00717233
0.00724919
0.00732872
0.00740844
0.00748441
0.0075507
0.00760104
0.00762833
9.09989e-05
0.00013349
0.000869047
0.00247478
0.00403344
0.00516945
0.00593971
0.00645533
0.00680483
0.00704611
0.0072151
0.0073341
0.00741723
0.00747368
0.00750962
0.00752934
0.00753599
0.00753196
0.00751903
0.00749861
0.00747186
0.0074397
0.00740285
0.00736195
0.00731754
0.00727022
0.00722052
0.00716903
0.00711625
0.00706267
0.00700876
0.00695502
0.00690212
0.00685077
0.00680174
0.00675585
0.00671405
0.0066772
0.0066461
0.00662156
0.00660458
0.00659574
0.00659555
0.00660439
0.00662263
0.00665029
0.00668735
0.00673348
0.00678804
0.0068502
0.00691915
0.00699419
0.00707415
0.00715782
0.00724343
0.00732793
0.0074072
0.00747542
0.00752652
0.00755399
9.2694e-05
0.000136456
0.000887513
0.00251684
0.00408844
0.00523003
0.00600189
0.00651718
0.0068653
0.00710457
0.00727105
0.00738712
0.00746692
0.00751964
0.0075514
0.00756649
0.00756808
0.0075585
0.0075396
0.00751289
0.00747959
0.00744071
0.00739713
0.00734955
0.00729866
0.00724506
0.00718936
0.00713205
0.00707358
0.00701445
0.00695501
0.00689585
0.00683751
0.00678076
0.00672635
0.00667506
0.00662771
0.00658532
0.00654864
0.00651864
0.00649627
0.00648233
0.00647749
0.00648222
0.00649712
0.00652233
0.0065581
0.00660429
0.00666059
0.00672617
0.00679996
0.00688086
0.00696718
0.00705709
0.00714834
0.00723737
0.00731968
0.00738974
0.00744157
0.00746922
9.42627e-05
0.000139217
0.000904678
0.00255575
0.00413922
0.00528594
0.00605933
0.00657438
0.00692131
0.00715878
0.00732303
0.00743649
0.00751333
0.00756273
0.00759078
0.00760175
0.00759879
0.00758421
0.00755987
0.00752728
0.00748776
0.0074424
0.00739223
0.00733809
0.00728077
0.00722098
0.00715922
0.00709602
0.00703183
0.00696703
0.00690207
0.00683754
0.00677392
0.00671191
0.00665225
0.00659565
0.00654292
0.00649506
0.00645294
0.00641748
0.00638972
0.00637049
0.00636067
0.00636088
0.00637179
0.0063939
0.00642753
0.00647266
0.00652918
0.00659661
0.00667384
0.0067594
0.00685111
0.00694657
0.00704289
0.00713608
0.00722128
0.00729296
0.00734551
0.00737335
9.56946e-05
0.000141753
0.000920422
0.00259129
0.00418554
0.00533698
0.00611184
0.00662676
0.00697271
0.00720865
0.00737097
0.00748216
0.00755642
0.00760291
0.00762772
0.00763512
0.00762815
0.0076091
0.00757986
0.00754193
0.0074967
0.00744532
0.00738888
0.00732838
0.00726472
0.00719867
0.00713085
0.00706171
0.0069917
0.00692119
0.00685076
0.00678081
0.00671191
0.0066447
0.00657986
0.00651809
0.00646016
0.00640698
0.00635954
0.00631873
0.00628554
0.00626085
0.00624579
0.0062411
0.00624755
0.00626573
0.0062963
0.0063394
0.00639492
0.00646248
0.00654137
0.00663002
0.00672591
0.00682587
0.00692657
0.00702338
0.00711119
0.00718434
0.00723758
0.00726569
9.69815e-05
0.000144048
0.000934656
0.00262331
0.00422728
0.00538303
0.00615934
0.00667429
0.00701948
0.00725417
0.00741486
0.00752414
0.0075962
0.00764021
0.00766226
0.00766658
0.00765618
0.00763331
0.00759978
0.00755714
0.00750677
0.00744985
0.00738756
0.00732099
0.00725115
0.00717893
0.00710499
0.00702983
0.00695395
0.00687776
0.0068017
0.00672632
0.0066522
0.00657981
0.00650983
0.00644299
0.00637994
0.00632167
0.00626899
0.00622289
0.00618425
0.00615415
0.00613364
0.00612364
0.00612509
0.00613872
0.00616531
0.00620524
0.00625856
0.00632487
0.00640347
0.00649331
0.00659159
0.00669478
0.00679884
0.00689856
0.00698861
0.00706319
0.00711713
0.00714534
9.81179e-05
0.000146089
0.000947315
0.00265172
0.00426433
0.005424
0.00620173
0.00671684
0.00706153
0.00729526
0.00745466
0.00756237
0.00763263
0.00767462
0.0076944
0.00769621
0.00768296
0.00765689
0.00761978
0.00757312
0.00751821
0.00745635
0.00738867
0.00731643
0.00724067
0.00716242
0.00708246
0.00700129
0.00691946
0.00683746
0.00675577
0.00667498
0.00659556
0.006518
0.00644291
0.00637102
0.00630304
0.00623967
0.00618179
0.00613044
0.00608644
0.00605086
0.00602475
0.00600921
0.00600519
0.00601368
0.0060354
0.00607105
0.00612074
0.00618441
0.00626114
0.00635
0.00644855
0.00655327
0.00665936
0.00676113
0.00685289
0.0069286
0.00698311
0.0070116
9.91024e-05
0.000147873
0.000958377
0.00267651
0.00429671
0.00545993
0.00623905
0.0067545
0.00709892
0.007332
0.00749046
0.00759698
0.00766586
0.00770627
0.00772428
0.00772409
0.00770859
0.00768
0.00764
0.00759003
0.00753134
0.00746517
0.00739273
0.00731527
0.00723393
0.00714979
0.00706388
0.00697677
0.00688904
0.00680127
0.00671392
0.0066276
0.00654277
0.00646002
0.00637983
0.00630293
0.00622996
0.0061616
0.00609862
0.00604203
0.00599262
0.00595151
0.0059197
0.00589835
0.00588858
0.0058912
0.00590729
0.00593759
0.00598245
0.00604182
0.00611509
0.00620111
0.00629774
0.00640177
0.00650813
0.00661075
0.00670346
0.00677993
0.00683472
0.00686341
9.99376e-05
0.0001494
0.000967826
0.00269771
0.00432449
0.00549089
0.00627139
0.00678732
0.00713171
0.00736443
0.00752227
0.00762798
0.00769586
0.00773512
0.00775183
0.00775016
0.00773301
0.0077025
0.00766029
0.0076077
0.00754596
0.00747623
0.00739972
0.00731766
0.00723122
0.00714161
0.00705
0.00695715
0.00686363
0.00677009
0.00667706
0.00658514
0.00649492
0.00640686
0.00632157
0.00623961
0.00616159
0.00608819
0.00602012
0.00595825
0.00590342
0.00585676
0.00581915
0.00579179
0.00577575
0.00577214
0.00578187
0.00580579
0.00584461
0.00589827
0.00596636
0.00604788
0.00614042
0.00624134
0.00634586
0.00644755
0.00653984
0.00661643
0.00667131
0.00670007
0.000100629
0.000150678
0.000975738
0.00271547
0.00434785
0.00551704
0.00629887
0.0068154
0.00715997
0.0073926
0.00755013
0.00765536
0.00772261
0.00776112
0.00777697
0.00777431
0.00775603
0.00772424
0.00768049
0.00762607
0.00756208
0.00748963
0.00740981
0.00732382
0.00723289
0.00713834
0.00704138
0.00694298
0.00684386
0.00674464
0.006646
0.00654857
0.00645285
0.00635945
0.00626889
0.00618179
0.00609866
0.00602015
0.00594692
0.00587974
0.00581944
0.00576711
0.00572362
0.00568993
0.0056674
0.00565705
0.0056598
0.00567659
0.00570811
0.00575468
0.00581606
0.00589123
0.005978
0.00607336
0.00617347
0.00627213
0.00636244
0.00643794
0.00649224
0.00652068
0.000101187
0.000151719
0.000982179
0.00272994
0.00436693
0.00553851
0.00632158
0.00683877
0.00718369
0.00741644
0.00757393
0.00767899
0.00774595
0.00778408
0.00779948
0.0077963
0.00777741
0.00774489
0.00770027
0.00764475
0.00757934
0.007505
0.00742274
0.00733369
0.00723905
0.00714013
0.00703829
0.00693476
0.00683032
0.00672569
0.00662153
0.00651862
0.00641743
0.00631867
0.00622283
0.00613041
0.00604202
0.00595833
0.00587979
0.0058072
0.00574133
0.00568317
0.00563354
0.00559346
0.00556409
0.00554649
0.00554182
0.00555071
0.0055741
0.00561236
0.00566552
0.00573265
0.00581175
0.00589977
0.00599285
0.00608591
0.00617229
0.00624502
0.00629772
0.00632541
0.000101617
0.00015253
0.000987207
0.00274125
0.0043819
0.00555545
0.00633962
0.00685749
0.00720285
0.00743588
0.00759356
0.00769869
0.00776568
0.00780379
0.00781914
0.00781586
0.00779686
0.00776417
0.00771928
0.00766334
0.00759725
0.00752188
0.00743813
0.00734697
0.00724953
0.00714714
0.00704118
0.00693298
0.00682368
0.00671397
0.00660456
0.00649625
0.0063897
0.00628547
0.0061842
0.0060864
0.00599268
0.00590357
0.00581957
0.0057414
0.00566981
0.00560558
0.00554969
0.00550297
0.00546648
0.0054412
0.00542853
0.00542897
0.00544341
0.00547239
0.00551607
0.00557351
0.00564323
0.00572227
0.00580653
0.00589138
0.00597133
0.00603944
0.00608918
0.00611542
0.000101926
0.000153118
0.000990854
0.00274947
0.00439285
0.00556794
0.00635305
0.00687159
0.00721747
0.00745094
0.00760899
0.00771446
0.00778176
0.00782015
0.00783578
0.00783282
0.00781413
0.00778177
0.00773717
0.00768141
0.00761537
0.00753978
0.00745543
0.00736319
0.00726407
0.00715928
0.00705013
0.00693804
0.00682437
0.00671
0.00659571
0.00648228
0.00637042
0.00626076
0.00615405
0.00605082
0.00595155
0.00585682
0.00576717
0.0056832
0.00560561
0.00553515
0.00547266
0.00541894
0.00537505
0.0053419
0.00532066
0.00531204
0.00531695
0.00533586
0.00536895
0.00541545
0.00547427
0.00554262
0.00561659
0.00569188
0.00576319
0.0058244
0.00586954
0.00589366
0.000102119
0.00015349
0.00099316
0.0027547
0.0043999
0.0055761
0.00636197
0.00688113
0.00722758
0.00746158
0.00762013
0.0077261
0.00779392
0.00783287
0.0078491
0.00784678
0.00782879
0.00779717
0.00775337
0.00769844
0.00763316
0.00755819
0.0074742
0.00738193
0.00728221
0.00717609
0.00706482
0.00694984
0.00683253
0.00671416
0.0065955
0.00647742
0.00636059
0.00624571
0.00613357
0.00602476
0.00591979
0.00581926
0.00572363
0.0056335
0.00554958
0.00547259
0.0054031
0.00534212
0.00529054
0.00524918
0.00521892
0.00520075
0.00519561
0.00520371
0.00522536
0.00526002
0.00530674
0.00536305
0.0054255
0.0054902
0.00555159
0.00560456
0.00564388
0.0056648
0.000102198
0.000153647
0.000994141
0.00275699
0.00440309
0.00557994
0.00636638
0.00688609
0.00723308
0.00746764
0.00762679
0.00773342
0.00780193
0.00784164
0.00785873
0.00785735
0.00784043
0.00780997
0.00776744
0.00771384
0.00764994
0.00757634
0.00749359
0.00740228
0.0073031
0.00719692
0.00708484
0.00696816
0.00684833
0.00672673
0.00660441
0.00648218
0.00636079
0.00624106
0.00612361
0.00600918
0.00589839
0.00579177
0.00568988
0.00559337
0.00550272
0.00541873
0.00534203
0.00527344
0.00521368
0.00516362
0.00512399
0.00509595
0.00508015
0.00507696
0.00508655
0.00510862
0.0051425
0.00518569
0.0052357
0.00528855
0.00533955
0.00538377
0.00541673
0.00543438
0.000102165
0.000153586
0.000993767
0.00275623