/*--------------------------------*- C++ -*----------------------------------*\
| =========                 |                                                 |
| \\      /  F ield         | OpenFOAM: The Open Source CFD Toolbox           |
|  \\    /   O peration     | Version:  2212                                  |
|   \\  /    A nd           | Website:  www.openfoam.com                      |
|    \\/     M anipulation  |                                                 |
\*---------------------------------------------------------------------------*/
FoamFile
{
    version     2.0;
    format      ascii;
    arch        "LSB;label=32;scalar=64";
    class       volScalarField;
    location    "1";
    object      nut;
}
// * * * * * * * * * * * * * * * * * * * * * * * * * * * * * * * * * * * * * //

dimensions      [0 2 -1 0 0 0 0];

internalField   nonuniform List<scalar> 
3600
(
3.43477e-11
1.65807e-10
4.57102e-10
9.32355e-10
1.62068e-09
2.54033e-09
3.67899e-09
4.9814e-09
6.36147e-09
7.72946e-09
9.01752e-09
1.01894e-08
1.12383e-08
1.21766e-08
1.30263e-08
1.38101e-08
1.45476e-08
1.52527e-08
1.59342e-08
1.65987e-08
1.7249e-08
1.78835e-08
1.85014e-08
1.91032e-08
1.96886e-08
2.02564e-08
2.08052e-08
2.13332e-08
2.18385e-08
2.2319e-08
2.27728e-08
2.31974e-08
2.35904e-08
2.3949e-08
2.42713e-08
2.45557e-08
2.48022e-08
2.50115e-08
2.51849e-08
2.53242e-08
2.54315e-08
2.55085e-08
2.5557e-08
2.55773e-08
2.55693e-08
2.55342e-08
2.54684e-08
2.53712e-08
2.52403e-08
2.50728e-08
2.48645e-08
2.46093e-08
2.42991e-08
2.39246e-08
2.34759e-08
2.29478e-08
2.23502e-08
2.17272e-08
2.11764e-08
2.08392e-08
1.65807e-10
3.30559e-10
1.65383e-09
4.85347e-09
1.0575e-08
1.90354e-08
2.97896e-08
4.18705e-08
5.41651e-08
6.58164e-08
7.63681e-08
8.57295e-08
9.40527e-08
1.0159e-07
1.086e-07
1.15293e-07
1.21813e-07
1.28246e-07
1.34627e-07
1.40965e-07
1.47247e-07
1.53462e-07
1.59596e-07
1.65646e-07
1.71596e-07
1.77424e-07
1.83108e-07
1.88623e-07
1.93942e-07
1.99038e-07
2.03884e-07
2.08447e-07
2.12695e-07
2.16596e-07
2.20126e-07
2.23266e-07
2.26012e-07
2.28359e-07
2.30324e-07
2.3192e-07
2.33164e-07
2.34066e-07
2.34637e-07
2.34877e-07
2.34783e-07
2.34387e-07
2.33614e-07
2.32477e-07
2.30955e-07
2.2901e-07
2.26603e-07
2.23681e-07
2.20169e-07
2.15998e-07
2.11111e-07
2.05528e-07
1.99444e-07
1.93365e-07
1.88205e-07
1.85146e-07
4.57102e-10
1.65383e-09
2.04299e-08
8.74404e-08
2.15596e-07
4.05859e-07
6.45965e-07
9.10556e-07
1.17427e-06
1.41843e-06
1.63444e-06
1.822e-06
1.98578e-06
2.13205e-06
2.2667e-06
2.39426e-06
2.51774e-06
2.63879e-06
2.75804e-06
2.87557e-06
2.99106e-06
3.10444e-06
3.21556e-06
3.32435e-06
3.43056e-06
3.53387e-06
3.63392e-06
3.73033e-06
3.82275e-06
3.91074e-06
3.99392e-06
4.07185e-06
4.14401e-06
4.20999e-06
4.26948e-06
4.32226e-06
4.36831e-06
4.40752e-06
4.44029e-06
4.46693e-06
4.48768e-06
4.50273e-06
4.51226e-06
4.51623e-06
4.51459e-06
4.50796e-06
4.49494e-06
4.47579e-06
4.45015e-06
4.41737e-06
4.37672e-06
4.32731e-06
4.26783e-06
4.19712e-06
4.11418e-06
4.01939e-06
3.91613e-06
3.81304e-06
3.72565e-06
3.67389e-06
9.32356e-10
4.85347e-09
8.74404e-08
5.51595e-07
1.65174e-06
3.24286e-06
5.05424e-06
6.84704e-06
8.46172e-06
9.82192e-06
1.09227e-05
1.18032e-05
1.25186e-05
1.31217e-05
1.36541e-05
1.41447e-05
1.46109e-05
1.50617e-05
1.55006e-05
1.59271e-05
1.63399e-05
1.67402e-05
1.71277e-05
1.75027e-05
1.78646e-05
1.82127e-05
1.85462e-05
1.88644e-05
1.91664e-05
1.94514e-05
1.97185e-05
1.99669e-05
2.01951e-05
2.04025e-05
2.05887e-05
2.07532e-05
2.08965e-05
2.10186e-05
2.11207e-05
2.1204e-05
2.12691e-05
2.13164e-05
2.13464e-05
2.13586e-05
2.13531e-05
2.13322e-05
2.12904e-05
2.1229e-05
2.1147e-05
2.1042e-05
2.09117e-05
2.07533e-05
2.05629e-05
2.03371e-05
2.00735e-05
1.97745e-05
1.94524e-05
1.91354e-05
1.88705e-05
1.87155e-05
1.62068e-09
1.0575e-08
2.15596e-07
1.65174e-06
5.58015e-06
1.09554e-05
1.64142e-05
2.13322e-05
2.54471e-05
2.86935e-05
3.11427e-05
3.29528e-05
3.43006e-05
3.53468e-05
3.62139e-05
3.69855e-05
3.77112e-05
3.8416e-05
3.91086e-05
3.97701e-05
4.03876e-05
4.09938e-05
4.15861e-05
4.21634e-05
4.27234e-05
4.32645e-05
4.37843e-05
4.42813e-05
4.47538e-05
4.51999e-05
4.56183e-05
4.60073e-05
4.63648e-05
4.66896e-05
4.69813e-05
4.72395e-05
4.74649e-05
4.76578e-05
4.78202e-05
4.79536e-05
4.80587e-05
4.81355e-05
4.8184e-05
4.82033e-05
4.81927e-05
4.8158e-05
4.80869e-05
4.79831e-05
4.78451e-05
4.76688e-05
4.74507e-05
4.71874e-05
4.68734e-05
4.65057e-05
4.60837e-05
4.56168e-05
4.51304e-05
4.46711e-05
4.43042e-05
4.40977e-05
2.54033e-09
1.90354e-08
4.05859e-07
3.24286e-06
1.09555e-05
2.10877e-05
3.11179e-05
4.01694e-05
4.79785e-05
5.42512e-05
5.89695e-05
6.23358e-05
6.46607e-05
6.62734e-05
6.74503e-05
6.83941e-05
6.92335e-05
7.00387e-05
7.08403e-05
7.16472e-05
7.24567e-05
7.32614e-05
7.40553e-05
7.48342e-05
7.55938e-05
7.63306e-05
7.70402e-05
7.77196e-05
7.83661e-05
7.89763e-05
7.95483e-05
8.00795e-05
8.05667e-05
8.10082e-05
8.14038e-05
8.1753e-05
8.20573e-05
8.23179e-05
8.25374e-05
8.27181e-05
8.28608e-05
8.29648e-05
8.30295e-05
8.30532e-05
8.30335e-05
8.29809e-05
8.28745e-05
8.27204e-05
8.25169e-05
8.22579e-05
8.19389e-05
8.15558e-05
8.11017e-05
8.05752e-05
7.9978e-05
7.93276e-05
7.86635e-05
7.80506e-05
7.75723e-05
7.73081e-05
3.679e-09
2.97896e-08
6.45965e-07
5.05424e-06
1.64142e-05
3.11179e-05
4.56965e-05
5.9729e-05
7.23215e-05
8.28861e-05
9.12112e-05
9.74033e-05
0.000101786
0.00010479
0.000106841
0.000108299
0.000109429
0.000110401
0.000111312
0.000112213
0.000113119
0.000114028
0.000114934
0.00011583
0.000116712
0.000117573
0.000118406
0.000119207
0.00011997
0.000120691
0.000121366
0.000121992
0.000122564
0.000123081
0.000123541
0.000123944
0.000124294
0.000124592
0.000124842
0.000125048
0.00012521
0.000125326
0.000125396
0.000125416
0.000125381
0.000125306
0.000125163
0.000124957
0.000124688
0.000124348
0.000123931
0.000123435
0.000122851
0.000122181
0.00012143
0.000120625
0.000119815
0.00011908
0.000118512
0.000118201
4.98142e-09
4.18706e-08
9.10558e-07
6.84705e-06
2.13322e-05
4.01694e-05
5.9729e-05
7.91749e-05
9.72468e-05
0.000113058
0.000126157
0.000136455
0.000144153
0.000149655
0.000153461
0.000156063
0.000157883
0.000159237
0.000160338
0.000161317
0.000162242
0.000163146
0.000164043
0.000164934
0.000165817
0.000166686
0.000167532
0.00016835
0.000169133
0.000169872
0.000170565
0.000171204
0.000171785
0.000172305
0.000172762
0.000173157
0.000173495
0.000173778
0.000174012
0.000174204
0.000174353
0.000174455
0.00017451
0.000174511
0.000174451
0.00017435
0.000174169
0.000173913
0.000173585
0.000173175
0.000172677
0.000172089
0.000171403
0.000170626
0.000169766
0.000168855
0.000167948
0.000167126
0.000166487
0.000166131
6.3615e-09
5.41653e-08
1.17427e-06
8.46174e-06
2.54471e-05
4.79786e-05
7.23216e-05
9.72468e-05
0.000121133
0.000142786
0.00016152
0.000177029
0.000189309
0.000198607
0.000205357
0.00021009
0.000213343
0.000215581
0.000217169
0.000218364
0.000219333
0.000220181
0.00022097
0.00022173
0.000222475
0.00022321
0.000223929
0.000224628
0.000225299
0.000225934
0.000226527
0.00022707
0.000227555
0.00022798
0.000228344
0.000228645
0.000228891
0.000229087
0.000229243
0.000229365
0.000229452
0.000229503
0.000229514
0.000229473
0.000229375
0.00022924
0.000229023
0.000228724
0.00022835
0.00022789
0.000227337
0.000226694
0.000225951
0.000225121
0.000224213
0.000223257
0.000222303
0.000221421
0.00022071
0.000220298
7.7295e-09
6.58166e-08
1.41844e-06
9.82194e-06
2.86935e-05
5.42512e-05
8.28862e-05
0.000113058
0.000142786
0.000170518
0.000195335
0.000216766
0.00023462
0.000248931
0.000259941
0.000268075
0.000273864
0.000277861
0.000280566
0.000282389
0.000283635
0.000284522
0.000285199
0.000285756
0.000286252
0.000286716
0.00028716
0.000287589
0.000287998
0.000288383
0.000288736
0.000289051
0.000289317
0.000289531
0.00028969
0.000289795
0.000289853
0.000289874
0.000289872
0.000289854
0.000289822
0.000289772
0.000289699
0.00028959
0.000289438
0.000289257
0.000289006
0.000288674
0.000288271
0.000287787
0.000287217
0.000286564
0.000285823
0.000285006
0.000284118
0.000283178
0.000282215
0.000281277
0.000280468
0.00027997
9.01757e-09
7.63684e-08
1.63444e-06
1.09227e-05
3.11427e-05
5.89696e-05
9.12114e-05
0.000126158
0.00016152
0.000195335
0.000226391
0.000254066
0.000278056
0.000298239
0.000314648
0.000327489
0.00033714
0.000344104
0.000348932
0.000352149
0.000354206
0.000355468
0.000356206
0.000356616
0.000356829
0.000356931
0.000356972
0.000356981
0.000356971
0.000356947
0.000356904
0.000356838
0.000356739
0.000356604
0.000356431
0.000356218
0.000355979
0.00035572
0.000355468
0.000355229
0.000355006
0.000354798
0.000354593
0.000354383
0.000354155
0.000353917
0.000353634
0.000353282
0.000352873
0.000352399
0.000351859
0.000351255
0.000350583
0.000349854
0.000349058
0.000348191
0.00034724
0.000346223
0.000345266
0.000344639
1.01895e-08
8.57299e-08
1.82201e-06
1.18033e-05
3.29529e-05
6.23359e-05
9.74035e-05
0.000136456
0.00017703
0.000216766
0.000254066
0.000288083
0.000318427
0.000344909
0.000367433
0.000386002
0.000400764
0.000412031
0.000420259
0.000425983
0.000429742
0.000432034
0.000433275
0.000433796
0.000433842
0.000433591
0.000433163
0.000432638
0.000432062
0.000431464
0.000430855
0.000430239
0.000429611
0.000428969
0.000428314
0.000427645
0.000426979
0.000426324
0.000425716
0.000425161
0.000424667
0.000424233
0.000423845
0.000423494
0.000423166
0.000422858
0.000422546
0.000422192
0.000421806
0.000421384
0.000420928
0.000420442
0.000419917
0.000419357
0.000418724
0.000417971
0.000417032
0.00041589
0.000414713
0.000413905
1.12383e-08
9.40531e-08
1.98578e-06
1.25186e-05
3.43006e-05
6.46607e-05
0.000101786
0.000144153
0.000189309
0.00023462
0.000278056
0.000318427
0.000355187
0.000388109
0.000417062
0.000441946
0.000462717
0.000479455
0.000492401
0.00050195
0.000508611
0.000512933
0.000515447
0.000516621
0.000516843
0.000516417
0.000515571
0.000514468
0.00051322
0.0005119
0.000510551
0.0005092
0.000507855
0.000506521
0.000505211
0.000503922
0.00050268
0.000501492
0.000500404
0.000499428
0.000498572
0.000497835
0.000497205
0.000496669
0.000496214
0.000495824
0.000495489
0.000495154
0.00049483
0.00049451
0.000494202
0.000493913
0.000493624
0.000493316
0.000492913
0.000492301
0.000491351
0.000490015
0.000488535
0.000487489
1.21767e-08
1.01591e-07
2.13205e-06
1.31217e-05
3.53467e-05
6.62734e-05
0.00010479
0.000149655
0.000198607
0.000248931
0.00029824
0.00034491
0.000388109
0.000427512
0.000462982
0.000494408
0.000521663
0.000544655
0.000563392
0.000578042
0.000588938
0.000596551
0.00060143
0.00060413
0.000605167
0.00060499
0.000603965
0.000602376
0.000600433
0.000598288
0.00059604
0.000593761
0.000591489
0.000589251
0.000587078
0.000584976
0.000582977
0.000581097
0.000579388
0.000577867
0.000576544
0.00057542
0.000574479
0.00057371
0.000573099
0.000572618
0.000572265
0.000571978
0.000571763
0.000571605
0.000571523
0.00057152
0.000571561
0.000571591
0.000571475
0.000571016
0.000570011
0.000568396
0.000566527
0.000565192
1.30264e-08
1.08601e-07
2.2667e-06
1.36541e-05
3.62138e-05
6.74502e-05
0.000106841
0.000153461
0.000205357
0.000259942
0.000314649
0.000367434
0.000417063
0.000462983
0.000505
0.000543022
0.000576928
0.00060656
0.000631771
0.000652504
0.000668854
0.000681087
0.000689633
0.000695028
0.000697844
0.000698647
0.000697945
0.000696165
0.000693652
0.000690672
0.000687414
0.000684029
0.00068061
0.000677233
0.000673956
0.00067081
0.00066784
0.000665073
0.000662573
0.00066036
0.000658447
0.000656835
0.000655507
0.000654448
0.00065365
0.000653072
0.000652705
0.000652504
0.000652453
0.00065253
0.000652759
0.000653141
0.000653615
0.00065407
0.000654288
0.000653978
0.00065286
0.000650874
0.000648535
0.000646863
1.38102e-08
1.15293e-07
2.39427e-06
1.41447e-05
3.69854e-05
6.8394e-05
0.000108299
0.000156063
0.00021009
0.000268076
0.00032749
0.000386003
0.000441947
0.000494409
0.000543023
0.000587668
0.000628259
0.000664654
0.000696658
0.000724072
0.000746773
0.000764786
0.000778312
0.00078773
0.000793558
0.000796388
0.00079682
0.000795423
0.000792688
0.00078902
0.000784746
0.000780132
0.000775373
0.000770617
0.000765975
0.000761518
0.00075732
0.000753432
0.000749931
0.000746843
0.000744188
0.000741967
0.000740154
0.00073874
0.000737717
0.000737033
0.000736658
0.00073658
0.000736756
0.000737148
0.000737789
0.000738661
0.000739673
0.000740636
0.000741228
0.000741046
0.000739748
0.000737304
0.000734428
0.000732381
1.45477e-08
1.21814e-07
2.51775e-06
1.46109e-05
3.77113e-05
6.92335e-05
0.000109429
0.000157883
0.000213344
0.000273865
0.000337142
0.000400765
0.000462718
0.000521664
0.00057693
0.000628259
0.000675564
0.000718745
0.000757636
0.000791996
0.000821577
0.000846195
0.000865804
0.000880537
0.000890724
0.000896862
0.000899545
0.000899417
0.000897088
0.000893121
0.000888014
0.000882189
0.00087597
0.00086963
0.000863369
0.000857316
0.000851603
0.000846319
0.000841559
0.000837368
0.000833778
0.000830781
0.000828361
0.000826506
0.000825201
0.000824389
0.00082401
0.000824082
0.000824541
0.000825335
0.000826487
0.000827957
0.000829606
0.000831154
0.000832145
0.000832066
0.000830516
0.000827545
0.000824079
0.000821633
1.52528e-08
1.28247e-07
2.63879e-06
1.50617e-05
3.8416e-05
7.00387e-05
0.000110401
0.000159237
0.000215582
0.000277862
0.000344106
0.000412033
0.000479456
0.000544656
0.000606562
0.000664656
0.000718746
0.000768747
0.000814538
0.000855917
0.000892605
0.000924303
0.000950759
0.000971856
0.000987666
0.000998471
0.00100473
0.00100704
0.00100607
0.00100252
0.000997033
0.000990228
0.000982601
0.000974583
0.000966499
0.00095858
0.000951045
0.000944048
0.000937715
0.000932128
0.000927347
0.00092336
0.000920164
0.000917744
0.000916071
0.000915084
0.000914693
0.000914931
0.000915722
0.000916996
0.000918747
0.000920905
0.000923267
0.000925456
0.000926859
0.000926848
0.000924988
0.000921439
0.000917352
0.000914501
1.59343e-08
1.34628e-07
2.75806e-06
1.55006e-05
3.91088e-05
7.08405e-05
0.000111313
0.000160339
0.00021717
0.000280568
0.000348933
0.000420261
0.000492402
0.000563394
0.000631774
0.000696661
0.000757637
0.000814539
0.000867269
0.000915681
0.000959531
0.0009985
0.00103223
0.0010604
0.00108284
0.00109955
0.00111075
0.00111686
0.00111851
0.00111642
0.00111138
0.00110414
0.00109543
0.00108582
0.00107582
0.00106583
0.00105617
0.00104709
0.00103882
0.00103148
0.00102518
0.00101992
0.00101571
0.00101254
0.00101038
0.00100913
0.0010087
0.0010091
0.00101025
0.00101206
0.00101447
0.00101738
0.00102051
0.00102335
0.00102515
0.00102517
0.00102296
0.00101881
0.00101409
0.00101085
1.65987e-08
1.40966e-07
2.8756e-06
1.59273e-05
3.97704e-05
7.16477e-05
0.000112213
0.000161318
0.000218366
0.000282391
0.00035215
0.000425984
0.000501951
0.000578043
0.000652506
0.000724074
0.000791999
0.00085592
0.00091568
0.000971165
0.00102219
0.00106847
0.00110963
0.00114528
0.00117502
0.00119861
0.00121597
0.0012273
0.00123301
0.00123374
0.00123033
0.00122361
0.00121444
0.00120362
0.00119183
0.00117968
0.00116764
0.00115611
0.00114547
0.00113595
0.00112771
0.00112081
0.00111527
0.0011111
0.00110825
0.0011066
0.00110605
0.00110658
0.00110809
0.00111047
0.00111359
0.00111728
0.00112117
0.00112463
0.00112679
0.00112679
0.00112419
0.00111943
0.00111412
0.00111052
1.7249e-08
1.47248e-07
2.99109e-06
1.63401e-05
4.03879e-05
7.24572e-05
0.00011312
0.000162243
0.000219335
0.000283637
0.000354208
0.000429743
0.000508612
0.000588939
0.000668854
0.000746776
0.00082158
0.000892606
0.000959529
0.00102219
0.00108042
0.00113402
0.00118266
0.00122591
0.00126332
0.00129443
0.00131895
0.00133675
0.00134801
0.00135315
0.00135286
0.00134797
0.00133941
0.00132812
0.00131496
0.00130076
0.00128619
0.00127189
0.00125847
0.00124627
0.00123559
0.00122658
0.00121928
0.00121375
0.00120993
0.00120765
0.00120685
0.00120743
0.00120925
0.00121217
0.001216
0.00122046
0.00122507
0.00122908
0.0012315
0.00123142
0.00122842
0.00122308
0.00121722
0.00121329
1.78836e-08
1.53463e-07
3.10447e-06
1.67403e-05
4.0994e-05
7.32619e-05
0.000114029
0.000163147
0.000220183
0.000284523
0.000355469
0.000432035
0.000512934
0.000596553
0.000681088
0.000764785
0.000846195
0.0009243
0.000998495
0.00106846
0.00113402
0.00119498
0.0012511
0.00130199
0.00134719
0.0013862
0.00141854
0.00144386
0.00146202
0.00147316
0.0014777
0.00147627
0.00146978
0.00145917
0.00144542
0.00142956
0.00141253
0.0013953
0.00137872
0.00136336
0.00134966
0.00133795
0.00132837
0.001321
0.00131579
0.00131256
0.00131125
0.00131171
0.00131373
0.00131713
0.00132161
0.00132677
0.00133201
0.00133646
0.00133903
0.00133878
0.00133537
0.00132949
0.00132315
0.00131895
1.85016e-08
1.59598e-07
3.21559e-06
1.71279e-05
4.15864e-05
7.40558e-05
0.000114934
0.000164044
0.000220971
0.0002852
0.000356207
0.000433277
0.000515448
0.000601431
0.000689634
0.00077831
0.000865803
0.000950757
0.00103222
0.00110962
0.00118265
0.00125109
0.00131473
0.00137329
0.00142634
0.00147343
0.00151402
0.0015476
0.00157377
0.00159234
0.0016034
0.00160728
0.00160463
0.00159622
0.00158305
0.0015663
0.00154721
0.00152714
0.00150719
0.00148824
0.00147095
0.00145591
0.00144338
0.00143356
0.00142639
0.00142175
0.00141956
0.00141959
0.00142161
0.00142531
0.0014303
0.00143603
0.00144175
0.0014465
0.00144908
0.00144856
0.00144472
0.00143837
0.00143164
0.00142722
1.91033e-08
1.65648e-07
3.32438e-06
1.75028e-05
4.21636e-05
7.48346e-05
0.000115831
0.000164935
0.000221731
0.000285758
0.000356618
0.000433798
0.000516623
0.000604131
0.000695029
0.00078773
0.000880534
0.000971851
0.0010604
0.00114527
0.0012259
0.00130198
0.00137329
0.00143957
0.00150056
0.00155585
0.00160493
0.00164725
0.00168224
0.00170944
0.00172857
0.00173958
0.0017427
0.00173826
0.00172716
0.0017107
0.00169042
0.001668
0.00164479
0.00162203
0.00160071
0.00158167
0.00156545
0.00155238
0.00154253
0.00153585
0.00153222
0.00153138
0.00153301
0.00153672
0.00154196
0.00154804
0.00155404
0.00155889
0.00156134
0.00156047
0.00155618
0.00154942
0.00154237
0.00153781
1.96887e-08
1.71597e-07
3.43058e-06
1.78647e-05
4.27236e-05
7.55942e-05
0.000116713
0.000165818
0.000222477
0.000286255
0.000356833
0.000433846
0.000516846
0.00060517
0.000697846
0.000793559
0.000890724
0.000987664
0.00108284
0.00117501
0.00126331
0.00134719
0.00142635
0.00150057
0.00156963
0.00163326
0.00169103
0.00174241
0.00178677
0.00182347
0.00185193
0.00187167
0.00188231
0.00188359
0.00187629
0.00186181
0.00184177
0.00181811
0.00179221
0.00176578
0.00174023
0.00171665
0.00169596
0.00167875
0.00166531
0.00165573
0.0016499
0.0016475
0.00164818
0.00165141
0.0016565
0.0016626
0.0016686
0.00167332
0.00167546
0.00167418
0.00166946
0.00166233
0.00165509
0.00165042
2.02565e-08
1.77426e-07
3.5339e-06
1.82128e-05
4.32648e-05
7.63312e-05
0.000117574
0.000166687
0.000223212
0.000286719
0.000356935
0.000433595
0.000516421
0.000604996
0.000698654
0.000796393
0.000896867
0.000998475
0.00109956
0.00119861
0.00129443
0.0013862
0.00147344
0.00155586
0.00163326
0.00170545
0.00177212
0.00183282
0.00188693
0.00193371
0.00197233
0.00200186
0.00202088
0.00202907
0.00202746
0.00201728
0.00200001
0.00197693
0.00194961
0.00192027
0.00189065
0.00186227
0.00183646
0.00181422
0.00179614
0.00178256
0.00177348
0.00176861
0.0017675
0.00176956
0.0017739
0.00177954
0.00178517
0.00178945
0.0017911
0.00178933
0.00178419
0.00177679
0.00176943
0.00176473
2.08054e-08
1.8311e-07
3.63396e-06
1.85464e-05
4.37847e-05
7.70409e-05
0.000118407
0.000167534
0.000223932
0.000287163
0.000356976
0.000433168
0.000515576
0.000603973
0.000697954
0.000796829
0.000899553
0.00100474
0.00111076
0.00121598
0.00131895
0.00141856
0.00151403
0.00160494
0.00169103
0.00177212
0.00184798
0.00191825
0.00198235
0.00203947
0.00208854
0.00212762
0.00215319
0.00216851
0.00217451
0.00217196
0.00216163
0.00214189
0.00211579
0.00208547
0.00205268
0.00201978
0.00198854
0.00196048
0.00193667
0.00191781
0.00190418
0.0018956
0.00189159
0.00189147
0.00189423
0.00189874
0.00190346
0.00190696
0.0019079
0.00190554
0.00190001
0.00189242
0.00188505
0.00188038
2.13334e-08
1.88626e-07
3.73039e-06
1.88646e-05
4.42818e-05
7.77206e-05
0.000119208
0.000168353
0.000224631
0.000287592
0.000356986
0.000432643
0.000514474
0.000602385
0.000696175
0.000795431
0.000899422
0.00100705
0.00111687
0.00122731
0.00133677
0.00144388
0.0015476
0.00164725
0.00174241
0.00183282
0.00191826
0.00199838
0.00207256
0.00213991
0.00219869
0.00224462
0.0022788
0.00230297
0.00231731
0.00232213
0.00231785
0.00230544
0.00228621
0.00225888
0.00222545
0.00218966
0.00215337
0.00211915
0.00208865
0.00206326
0.00204356
0.00202965
0.00202125
0.00201763
0.0020177
0.00202015
0.00202329
0.00202552
0.00202548
0.00202243
0.00201652
0.00200884
0.00200156
0.001997
2.18387e-08
1.93944e-07
3.82278e-06
1.91666e-05
4.4754e-05
7.83664e-05
0.000119971
0.000169134
0.000225301
0.000288001
0.000356976
0.000432068
0.000513228
0.000600444
0.000693663
0.000792695
0.000897097
0.00100608
0.00111853
0.00123303
0.00134803
0.00146204
0.00157378
0.00168225
0.00178677
0.00188694
0.00198237
0.00207257
0.00215678
0.00223369
0.00230033
0.00235444
0.00239867
0.00243286
0.00245663
0.0024699
0.00247301
0.00246699
0.00245262
0.00243098
0.00240372
0.00236954
0.00233052
0.00229119
0.00225365
0.00222069
0.00219326
0.00217221
0.00215758
0.00214878
0.0021447
0.0021439
0.00214454
0.00214488
0.00214352
0.00213962
0.00213334
0.00212562
0.00211851
0.00211413
2.23193e-08
1.99042e-07
3.91081e-06
1.94517e-05
4.52004e-05
7.89771e-05
0.000120692
0.000169874
0.000225937
0.000288387
0.000356952
0.000431472
0.000511909
0.000598298
0.000690682
0.00078903
0.000893134
0.00100253
0.00111645
0.00123377
0.00135317
0.00147318
0.00159235
0.00170945
0.00182349
0.00193373
0.00203949
0.00213992
0.00223369
0.00231895
0.00239268
0.00245712
0.00251229
0.00255735
0.0025916
0.00261466
0.00262658
0.00262795
0.00261948
0.00260259
0.00257869
0.00254889
0.00251499
0.00247463
0.00243216
0.00239143
0.002355
0.00232492
0.002302
0.00228597
0.00227587
0.00227028
0.00226726
0.0022649
0.00226171
0.00225675
0.00225001
0.00224228
0.00223542
0.00223126
2.27731e-08
2.03888e-07
3.994e-06
1.97188e-05
4.56188e-05
7.95492e-05
0.000121367
0.000170567
0.00022653
0.000288741
0.000356911
0.000430865
0.000510565
0.000596056
0.000687433
0.000784766
0.000888041
0.000997067
0.00111141
0.00123036
0.00135288
0.0014777
0.00160341
0.00172858
0.00185194
0.00197236
0.00208856
0.00219869
0.00230032
0.00239268
0.00247668
0.00255236
0.00261893
0.00267546
0.00272101
0.00275494
0.00277699
0.0027873
0.00278639
0.00277533
0.00275554
0.00272864
0.00269613
0.00265952
0.00262071
0.00257448
0.00252984
0.00248941
0.00245606
0.00243051
0.00241218
0.00239987
0.00239165
0.00238554
0.00237986
0.00237345
0.00236608
0.00235834
0.00235172
0.00234778
2.31977e-08
2.08451e-07
4.07191e-06
1.99671e-05
4.60078e-05
8.00802e-05
0.000121993
0.000171206
0.000227072
0.000289056
0.000356845
0.00043025
0.000509214
0.000593779
0.00068405
0.000780159
0.000882222
0.000990268
0.00110419
0.00122364
0.00134799
0.00147629
0.00160729
0.0017396
0.00187169
0.00200189
0.00212764
0.0022446
0.00235441
0.0024571
0.00255235
0.00263952
0.0027178
0.00278618
0.00284364
0.00288931
0.00292259
0.00294327
0.00295155
0.00294808
0.00293408
0.00291102
0.00288052
0.00284473
0.00280496
0.00276263
0.00271611
0.00266669
0.00262138
0.00258394
0.00255491
0.00253358
0.00251827
0.00250697
0.00249784
0.00248943
0.00248111
0.00247324
0.00246682
0.00246307
2.35907e-08
2.127e-07
4.1441e-06
2.01955e-05
4.63655e-05
8.05678e-05
0.000122566
0.000171788
0.00022756
0.000289324
0.000356749
0.000429623
0.000507869
0.000591508
0.000680636
0.000775407
0.000876015
0.000982658
0.00109548
0.0012145
0.00133945
0.0014698
0.00160464
0.0017427
0.00188232
0.0020209
0.00215317
0.00227875
0.00239863
0.00251226
0.00261891
0.00271779
0.00280801
0.00288856
0.00295836
0.00301641
0.00306185
0.00309409
0.00311301
0.00311886
0.00311242
0.00309501
0.00306815
0.00303367
0.00299331
0.00294948
0.00290316
0.00285466
0.00279911
0.00274797
0.00270568
0.00267273
0.00264801
0.00262969
0.00261579
0.00260452
0.00259479
0.00258645
0.0025801
0.00257649
2.39494e-08
2.16603e-07
4.21011e-06
2.0403e-05
4.66906e-05
8.10097e-05
0.000123083
0.000172308
0.000227985
0.000289537
0.000356613
0.000428981
0.000506537
0.000589273
0.000677261
0.000770656
0.000869679
0.000974638
0.00108588
0.00120368
0.00132818
0.00145921
0.00159626
0.00173829
0.0018836
0.00202906
0.00216847
0.00230292
0.00243283
0.00255732
0.00267545
0.00278619
0.00288856
0.00298155
0.00306406
0.00313499
0.00319328
0.00323806
0.00326889
0.00328557
0.00328849
0.00327847
0.00325706
0.00322573
0.00318629
0.00314084
0.00309159
0.00304009
0.00298713
0.00292406
0.00286641
0.00281911
0.00278233
0.00275465
0.0027342
0.0027188
0.00270684
0.00269754
0.00269098
0.00268742
2.42718e-08
2.20134e-07
4.26962e-06
2.05892e-05
4.69823e-05
8.14053e-05
0.000123543
0.000172766
0.000228349
0.000289697
0.000356439
0.000428325
0.000505224
0.000587094
0.000673976
0.000766
0.0008634
0.000966538
0.00107587
0.00119189
0.00131503
0.00144547
0.00158309
0.00172719
0.00187629
0.00202743
0.00217447
0.00231726
0.00245659
0.00259157
0.00272099
0.00284361
0.00295835
0.00306407
0.00315961
0.00324381
0.00331553
0.00337365
0.00341736
0.00344613
0.00345999
0.00345928
0.00344512
0.00341885
0.00338209
0.00333675
0.00328507
0.00322913
0.00317105
0.00311065
0.00303908
0.00297503
0.00292319
0.00288337
0.002854
0.00283266
0.00281727
0.00280627
0.00279906
0.00279528
2.45566e-08
2.23276e-07
4.32242e-06
2.07537e-05
4.72404e-05
8.17544e-05
0.000123946
0.00017316
0.00022865
0.000289801
0.000356225
0.000427653
0.00050393
0.000584986
0.000670822
0.000761537
0.000857343
0.000958612
0.00106587
0.00117973
0.0013008
0.00142959
0.0015663
0.0017107
0.00186178
0.00201724
0.00217194
0.00232212
0.00246988
0.00261464
0.00275491
0.00288929
0.00301641
0.003135
0.00324383
0.00334165
0.00342717
0.00349921
0.00355664
0.00359859
0.00362471
0.00363504
0.00362995
0.00361071
0.00357856
0.00353527
0.00348287
0.00342359
0.00335969
0.00329376
0.00322312
0.00314303
0.00307332
0.00301822
0.00297694
0.00294725
0.00292663
0.00291271
0.0029041
0.00289982
2.48032e-08
2.26021e-07
4.36846e-06
2.08969e-05
4.74656e-05
8.20585e-05
0.000124295
0.000173496
0.000228894
0.000289856
0.000355982
0.000426983
0.000502683
0.000582984
0.000667851
0.000757339
0.000851632
0.000951087
0.00105623
0.00116771
0.00128626
0.00141259
0.00154724
0.00169044
0.00184178
0.00199999
0.0021616
0.00231783
0.00247299
0.00262657
0.00277696
0.00292257
0.00306184
0.0031933
0.00331555
0.0034272
0.00352687
0.00361327
0.003685
0.003741
0.0037805
0.00380332
0.00380916
0.00379871
0.00377325
0.00373399
0.00368293
0.00362213
0.00355403
0.00348128
0.0034066
0.00332405
0.00323624
0.00316265
0.00310604
0.00306484
0.00303646
0.00301782
0.00300661
0.00300129
2.50125e-08
2.28369e-07
4.40768e-06
2.1019e-05
4.76586e-05
8.2319e-05
0.000124593
0.00017378
0.00022909
0.000289878
0.000355725
0.000426331
0.000501501
0.000581111
0.000665095
0.000753465
0.000846363
0.000944103
0.00104717
0.0011562
0.00127197
0.00139535
0.00152715
0.00166799
0.00181808
0.00197689
0.00214186
0.00230542
0.00246696
0.00262793
0.00278727
0.00294323
0.00309407
0.00323805
0.00337363
0.00349918
0.00361319
0.0037142
0.00380076
0.00387154
0.00392544
0.00396189
0.0039802
0.00398037
0.0039635
0.00393052
0.00388297
0.00382277
0.00375251
0.00367479
0.00359285
0.00350952
0.0034148
0.00332131
0.00324585
0.00318938
0.00314977
0.00312388
0.00310845
0.00310124
2.51858e-08
2.30335e-07
4.44048e-06
2.11213e-05
4.78212e-05
8.25388e-05
0.000124844
0.000174014
0.000229245
0.000289875
0.000355472
0.000425721
0.000500413
0.000579401
0.000662593
0.000749961
0.000841602
0.00093777
0.00103889
0.00114555
0.00125853
0.00137875
0.00150719
0.00164477
0.00179218
0.00194959
0.00211581
0.0022862
0.00245262
0.00261947
0.00278637
0.00295152
0.00311297
0.00326885
0.0034173
0.00355655
0.00368489
0.00380069
0.0039024
0.0039885
0.00405764
0.00410864
0.00414055
0.00415323
0.00414668
0.00412209
0.00408043
0.00402332
0.00395311
0.00387263
0.00378524
0.00369482
0.00360386
0.00349871
0.00340218
0.00332669
0.00327207
0.00323557
0.00321357
0.00320322
2.53254e-08
2.31934e-07
4.46715e-06
2.12046e-05
4.79546e-05
8.27194e-05
0.000125049
0.000174205
0.000229366
0.000289855
0.000355231
0.000425165
0.000499435
0.000577876
0.000660372
0.000746859
0.00083739
0.000932157
0.00103152
0.001136
0.00124634
0.0013634
0.00148824
0.00162201
0.00176575
0.00192025
0.0020855
0.00225895
0.00243097
0.00260261
0.00277533
0.00294806
0.00311881
0.00328549
0.00344603
0.00359846
0.00374089
0.0038714
0.0039884
0.00409011
0.00417492
0.00424126
0.00428805
0.00431455
0.0043203
0.00430595
0.00427268
0.0042211
0.00415358
0.00407289
0.00398247
0.00388636
0.00378919
0.00369278
0.00358087
0.00348427
0.00341131
0.00336056
0.00332923
0.00331424
2.54333e-08
2.33181e-07
4.48795e-06
2.12699e-05
4.80597e-05
8.28619e-05
0.000125211
0.000174353
0.000229453
0.000289821
0.000355005
0.000424665
0.00049857
0.000576543
0.000658445
0.000744185
0.000833774
0.000927347
0.00102519
0.00112774
0.00123564
0.00134972
0.00147101
0.00160074
0.0017402
0.00189064
0.00205272
0.00222552
0.00240372
0.00257869
0.00275552
0.00293404
0.00311235
0.00328836
0.00345983
0.0036245
0.00378037
0.00392527
0.0040574
0.00417476
0.00427548
0.00435788
0.00442032
0.00446179
0.00448174
0.00447976
0.00445677
0.00441345
0.00435132
0.0042733
0.00418263
0.00408339
0.00398096
0.00387991
0.00378062
0.00366915
0.00357693
0.00350947
0.00346633
0.00344517
2.55107e-08
2.34085e-07
4.50303e-06
2.13172e-05
4.81362e-05
8.29656e-05
0.000125327
0.000174456
0.000229503
0.000289771
0.000354796
0.000424231
0.000497835
0.00057542
0.000656835
0.000741965
0.000830783
0.000923377
0.00101995
0.00112086
0.00122663
0.001338
0.00145595
0.0015817
0.00171668
0.00186232
0.00201988
0.0021898
0.0023697
0.00254891
0.00272861
0.00291096
0.0030949
0.00327832
0.00345908
0.0036348
0.00380304
0.00396149
0.00410825
0.00424104
0.00435776
0.00445649
0.00453533
0.00459307
0.00462842
0.00464062
0.00463002
0.00459738
0.00454358
0.00447127
0.00438343
0.00428435
0.0041794
0.00407391
0.00397322
0.00387858
0.00377473
0.00369307
0.00363758
0.00360964
2.55589e-08
2.34654e-07
4.51253e-06
2.1347e-05
4.81848e-05
8.30304e-05
0.000125397
0.000174511
0.000229515
0.000289701
0.000354597