/*--------------------------------*- C++ -*----------------------------------*\
| =========                 |                                                 |
| \\      /  F ield         | OpenFOAM: The Open Source CFD Toolbox           |
|  \\    /   O peration     | Version:  2212                                  |
|   \\  /    A nd           | Website:  www.openfoam.com                      |
|    \\/     M anipulation  |                                                 |
\*---------------------------------------------------------------------------*/
FoamFile
{
    version     2.0;
    format      ascii;
    arch        "LSB;label=32;scalar=64";
    class       volScalarField;
    location    "1";
    object      omega;
}
// * * * * * * * * * * * * * * * * * * * * * * * * * * * * * * * * * * * * * //

dimensions      [0 0 -1 0 0 0 0];

internalField   nonuniform List<scalar> 
3600
(
4000
4000
4000
4000.01
4000.02
4000.03
4000.04
4000.05
4000.06
4000.08
4000.09
4000.1
4000.11
4000.12
4000.13
4000.14
4000.14
4000.15
4000.16
4000.16
4000.17
4000.18
4000.18
4000.19
4000.2
4000.2
4000.21
4000.21
4000.22
4000.22
4000.23
4000.23
4000.23
4000.24
4000.24
4000.24
4000.25
4000.25
4000.25
4000.25
4000.25
4000.25
4000.25
4000.25
4000.25
4000.25
4000.25
4000.25
4000.25
4000.25
4000.25
4000.24
4000.24
4000.24
4000.23
4000.23
4000.22
4000.22
4000.21
4000.21
4000
928.156
689.141
667.951
666.274
666.248
666.153
666.442
666.967
667.609
668.311
669.021
669.698
670.322
670.887
671.398
671.865
672.297
672.704
673.087
673.451
673.802
674.142
674.47
674.786
675.091
675.384
675.665
675.932
676.185
676.424
676.647
676.853
677.041
677.21
677.36
677.49
677.606
677.702
677.781
677.842
677.887
677.916
677.929
677.928
677.912
677.881
677.833
677.768
677.685
677.58
677.452
677.297
677.111
676.89
676.635
676.354
676.07
675.827
675.682
4000
689.141
297.012
231.427
220.324
218.98
219.389
220.408
221.705
223.164
224.694
226.209
227.649
228.978
230.187
231.284
232.283
233.203
234.06
234.862
235.616
236.334
237.022
237.679
238.306
238.905
239.475
240.017
240.529
241.011
241.462
241.881
242.266
242.616
242.93
243.206
243.446
243.652
243.824
243.962
244.07
244.148
244.199
244.222
244.22
244.192
244.136
244.052
243.936
243.787
243.601
243.371
243.089
242.748
242.338
241.854
241.306
240.737
240.236
239.929
4000.01
667.951
231.427
136.393
113.618
108.738
108.241
108.903
109.971
111.256
112.674
114.148
115.604
116.99
118.273
119.444
120.506
121.472
122.357
123.169
123.919
124.622
125.285
125.91
126.499
127.056
127.581
128.075
128.54
128.974
129.379
129.753
130.097
130.409
130.689
130.937
131.153
131.338
131.493
131.619
131.717
131.789
131.837
131.862
131.864
131.843
131.8
131.733
131.638
131.516
131.362
131.171
130.937
130.652
130.308
129.901
129.44
128.96
128.537
128.278
4000.02
666.274
220.325
113.618
82.7838
73.3668
70.2942
69.2701
69.0862
69.3757
70.0015
70.8475
71.8207
72.8392
73.8449
74.7995
75.6857
76.4988
77.2436
77.9202
78.5338
79.1034
79.636
80.135
80.6033
81.0431
81.4565
81.845
82.2093
82.5501
82.8675
83.1617
83.4325
83.6798
83.9036
84.1034
84.2791
84.4308
84.5596
84.6654
84.7491
84.8123
84.8561
84.881
84.8881
84.8779
84.85
84.8038
84.7377
84.6501
84.5394
84.402
84.2332
84.0283
83.7831
83.4968
83.1782
82.8539
82.5742
82.4063
4000.03
666.248
218.98
108.738
73.3667
60.0229
54.1951
51.3324
49.8725
49.2097
49.0676
49.2749
49.7226
50.31
50.9693
51.6478
52.3124
52.9446
53.5363
54.0829
54.5857
55.0533
55.49
55.8988
56.2823
56.642
56.9802
57.2978
57.5957
57.875
58.1356
58.3779
58.6021
58.8082
58.9963
59.166
59.3169
59.449
59.5625
59.6572
59.7334
59.7928
59.835
59.8619
59.8735
59.8704
59.8531
59.8204
59.7721
59.707
59.6237
59.5201
59.3932
59.2402
59.0599
58.8539
58.6319
58.4148
58.2354
58.1313
4000.04
666.153
219.389
108.241
70.2942
54.1951
46.2408
41.931
39.4665
38.0592
37.3198
37.0271
37.0414
37.2556
37.6026
38.0223
38.4753
38.9351
39.3854
39.8159
40.2231
40.6076
40.9699
41.3118
41.6342
41.9375
42.2236
42.4932
42.7467
42.9851
43.2083
43.4168
43.6109
43.7905
43.9557
44.1064
44.242
44.3622
44.4668
44.5556
44.6283
44.6863
44.7288
44.7579
44.7731
44.7756
44.7654
44.7422
44.7055
44.6548
44.589
44.5068
44.4068
44.2876
44.1498
43.9971
43.8399
43.6952
43.5837
43.5231
4000.05
666.442
220.408
108.903
69.2701
51.3323
41.931
36.5682
33.3481
31.3756
30.1851
29.5116
29.1907
29.112
29.1986
29.3955
29.6596
29.9618
30.2816
30.6049
30.9235
31.2334
31.5316
31.8175
32.0903
32.3495
32.5958
32.8292
33.05
33.2588
33.4551
33.6396
33.8123
33.9733
34.1227
34.2603
34.3855
34.4978
34.5967
34.682
34.753
34.8107
34.8543
34.8856
34.904
34.9109
34.9059
34.8895
34.8609
34.8201
34.7665
34.6989
34.6173
34.5213
34.413
34.2975
34.1856
34.0911
34.0264
33.9954
4000.06
666.967
221.705
109.971
69.0862
49.8723
39.4664
33.348
29.5643
27.1595
25.6208
24.6526
24.0726
23.7629
23.6423
23.6546
23.7567
23.92
24.1215
24.3455
24.5809
24.8206
25.0592
25.2941
25.5226
25.7432
25.9556
26.1589
26.3528
26.5377
26.7129
26.8786
27.0348
27.1816
27.3189
27.4464
27.5636
27.6702
27.765
27.8478
27.9179
27.9757
28.0208
28.0541
28.0754
28.0859
28.0851
28.074
28.0516
28.0182
27.9735
27.9168
27.8487
27.7699
27.6834
27.5955
27.5167
27.4583
27.4264
27.4159
4000.08
667.609
223.164
111.256
69.3755
49.2095
38.0591
31.3756
27.1595
24.414
22.5968
21.3921
20.6053
20.1104
19.8231
19.6843
19.6517
19.6949
19.7916
19.9251
20.0829
20.2562
20.4381
20.6244
20.811
20.9956
21.1769
21.3528
21.5231
21.687
21.844
21.9936
22.1359
22.271
22.3982
22.5177
22.6283
22.7302
22.8217
22.9026
22.972
23.0302
23.0766
23.1118
23.1358
23.1493
23.1521
23.1453
23.128
23.1006
23.0628
23.0147
22.9572
22.8919
22.8225
22.7559
22.7023
22.6705
22.6622
22.6658
4000.09
668.311
224.694
112.674
70.0016
49.0676
37.3198
30.1851
25.6208
22.5968
20.5487
19.1469
18.188
17.5403
17.1153
16.8518
16.7065
16.648
16.6536
16.7061
16.793
16.9042
17.0325
17.1721
17.3185
17.4684
17.6197
17.7697
17.9177
18.0621
18.2024
18.3376
18.4678
18.5924
18.7107
18.8231
18.9282
19.026
19.1146
19.1939
19.2628
19.3213
19.3691
19.406
19.4323
19.4485
19.4546
19.4512
19.4383
19.4158
19.3838
19.3428
19.294
19.2397
19.1843
19.1349
19.1008
19.0891
19.0975
19.111
4000.1
669.021
226.209
114.148
70.8473
49.2748
37.0271
29.5117
24.6526
21.3921
19.1469
17.576
16.4693
15.6907
15.1487
14.7798
14.539
14.3939
14.321
14.3027
14.3257
14.3801
14.4581
14.5534
14.6612
14.7775
14.8996
15.0243
15.1507
15.2764
15.4006
15.5221
15.641
15.756
15.8663
15.9723
16.0722
16.1666
16.2525
16.3303
16.3988
16.4575
16.5064
16.545
16.5734
16.5921
16.6011
16.6007
16.5915
16.5732
16.5462
16.5112
16.4698
16.4248
16.381
16.3456
16.327
16.3304
16.351
16.3711
4000.11
669.698
227.649
115.605
71.8207
49.7225
37.0414
29.1907
24.0726
20.6053
18.188
16.4693
15.2329
14.3395
13.6951
13.2346
12.9113
12.6914
12.5504
12.4701
12.4367
12.4399
12.4716
12.5255
12.5966
12.6804
12.774
12.8741
12.979
13.0862
13.1948
13.3033
13.411
13.5169
13.6196
13.7197
13.8149
13.9058
13.9893
14.0657
14.1336
14.1926
14.2425
14.2826
14.3128
14.3337
14.3453
14.3476
14.3415
14.3271
14.3045
14.2746
14.2396
14.2026
14.1686
14.1448
14.1386
14.1533
14.1825
14.207
4000.12
670.322
228.978
116.99
72.8394
50.3101
37.2558
29.1121
23.763
20.1105
17.5403
15.6907
14.3395
13.344
12.6085
12.0663
11.6698
11.384
11.1833
11.0484
10.9651
10.9226
10.9125
10.9284
10.9649
11.0179
11.0839
11.1599
11.2436
11.3326
11.4257
11.5212
11.6181
11.715
11.8104
11.9047
11.9955
12.083
12.1642
12.2391
12.3064
12.3656
12.4163
12.4577
12.4896
12.5124
12.5263
12.5311
12.5276
12.5166
12.4978
12.4725
12.4431
12.4129
12.3873
12.3731
12.3767
12.4001
12.4351
12.4623
4000.13
670.887
230.187
118.274
73.8449
50.9694
37.6028
29.1987
23.6424
19.8231
17.1153
15.1487
13.6951
12.6084
11.7911
11.1755
10.7129
10.3678
10.1135
9.9301
9.8024
9.71907
9.67139
9.65261
9.65741
9.6814
9.72118
9.77374
9.83683
9.90798
9.98558
10.0681
10.154
10.2419
10.3302
10.4187
10.5051
10.5892
10.6682
10.7416
10.8083
10.8673
10.9187
10.9612
10.9946
11.0191
11.0351
11.0421
11.0409
11.0329
11.0175
10.9962
10.9715
10.9473
10.9289
10.9227
10.934
10.9637
11.0026
11.0312
4000.14
671.398
231.284
119.444
74.7996
51.648
38.0224
29.3955
23.6546
19.6843
16.8517
14.7798
13.2346
12.0663
11.1755
10.4933
9.97072
9.5715
9.26846
9.04095
8.87319
8.75316
8.67163
8.62153
8.59732
8.59458
8.60976
8.64007
8.68313
8.73673
8.79908
8.86882
8.9438
9.02265
9.10388
9.18656
9.26856
9.34916
9.42559
9.49738
9.56324
9.62209
9.67388
9.71743
9.75193
9.77786
9.79573
9.8046
9.80546
9.8
9.78764
9.76974
9.74924
9.73007
9.71777
9.71808
9.73541
9.76971
9.81078
9.84001
4000.14
671.865
232.283
120.506
75.6855
52.3123
38.4753
29.6595
23.7566
19.6516
16.7064
14.539
12.9112
11.6698
10.7129
9.9707
9.39344
8.94463
8.59674
8.3287
8.12425
7.97079
7.85855
7.78006
7.72946
7.70222
7.6947
7.70411
7.7281
7.7648
7.81235
7.86947
7.93372
8.00336
8.07666
8.15294
8.22984
8.30631
8.37991
8.44977
8.51441
8.5732
8.6254
8.66974
8.70552
8.733
8.75292
8.7639
8.76699
8.76373
8.75397
8.73896
8.72197
8.70709
8.69985
8.70536
8.7274
8.76473
8.80686
8.83598
4000.15
672.297
233.203
121.472
76.4991
52.9447
38.9353
29.9619
23.92
19.6948
16.6479
14.3939
12.6914
11.384
10.3678
9.57147
8.94461
8.45041
8.06117
7.75561
7.51714
7.33276
7.19233
7.08791
7.01328
6.96364
6.9353
6.92538
6.93166
6.95235
6.98585
7.02988
7.08271
7.14231
7.20701
7.27601
7.34705
7.41873
7.48893
7.55667
7.61997
7.67847
7.73082
7.77593
7.81298
7.84218
7.86417
7.87742
7.88301
7.88221
7.87538
7.86361
7.85
7.83859
7.83543
7.84501
7.87054
7.90973
7.952
7.98057
4000.16
672.704
234.06
122.357
77.2434
53.5362
39.3853
30.2816
24.1215
19.7916
16.6536
14.321
12.5503
11.1832
10.1135
9.2684
8.59671
8.06117
7.63389
7.29352
7.02339
6.81021
6.64358
6.5152
6.41848
6.34835
6.3009
6.27327
6.26326
6.26888
6.28811
6.31885
6.3597
6.40861
6.46427
6.52517
6.58966
6.65624
6.72241
6.78732
6.84885
6.90663
6.95916
7.00497
7.04323
7.0742
7.09829
7.11399
7.12228
7.12419
7.12053
7.11229
7.10236
7.09476
7.09489
7.10751
7.13549
7.17554
7.21729
7.24494
4000.16
673.087
234.862
123.169
77.9199
54.0828
39.8157
30.6045
24.3452
19.9249
16.7059
14.3025
12.4699
11.0483
9.93003
9.04089
8.32866
7.75557
7.29354
6.92103
6.62141
6.38131
6.19014
6.03934
5.92211
5.83311
5.76814
5.72426
5.69904
5.69006
5.69531
5.7129
5.74157
5.77952
5.82543
5.87764
5.93492
5.99562
6.05727
6.11884
6.17828
6.23477
6.28727
6.33364
6.37281
6.40584
6.43193
6.45013
6.46132
6.46627
6.46585
6.46138
6.45539
6.45178
6.45534
6.47046
6.49989
6.54002
6.58076
6.60723
4000.17
673.451
235.616
123.919
78.5338
54.5855
40.2228
30.9232
24.5807
20.0826
16.7928
14.3256
12.4366
10.9651
9.80235
8.87315
8.12422
7.51714
7.02341
6.62143
6.29449
6.02925
5.81506
5.64319
5.5067
5.40004
5.31886
5.25991
5.22015
5.19719
5.18899
5.19385
5.21039
5.23709
5.27295
5.31594
5.36541
5.41968
5.47603
5.53368
5.59061
5.64535
5.69738
5.74407
5.78428
5.81915
5.84735
5.86807
5.88227
5.89036
5.89348
5.89284
5.89098
5.89142
5.89853
5.91622
5.94651
5.98607
6.02543
6.0506
4000.18
673.802
236.334
124.622
79.1033
55.0532
40.6075
31.2333
24.8205
20.2561
16.9042
14.3801
12.4399
10.9226
9.71904
8.75315
7.97078
7.33278
6.81027
6.38137
6.02931
5.74068
5.50488
5.31324
5.15861
5.03532
4.93892
4.86554
4.81199
4.77573
4.75477
4.74734
4.75214
4.76779
4.79336
4.82701
4.86826
4.91522
4.96567
5.01854
5.07252
5.12514
5.17594
5.22263
5.26392
5.30059
5.33072
5.35406
5.37135
5.38268
5.38943
5.39274
5.39504
5.39957
5.41025
5.43044
5.46162
5.5004
5.53807
5.56179
4000.18
674.142
237.022
125.285
79.6358
55.4898
40.9698
31.5314
25.0591
20.4382
17.0325
14.4581
12.4715
10.9125
9.67139
8.67163
7.85855
7.19235
6.64362
6.19024
5.81513
5.50496
5.24905
5.03874
4.86702
4.72803
4.61693
4.52969
4.46301
4.41417
4.38107
4.36202
4.35562
4.3606
4.37592
4.40021
4.43284
4.47192
4.51593
4.56354
4.61372
4.66373
4.71287
4.75886
4.80101
4.839
4.87115
4.89722
4.91751
4.93226
4.94268
4.95002
4.9565
4.96507
4.97926
5.00185
5.03384
5.07188
5.10792
5.13025
4000.19
674.47
237.679
125.91
80.135
55.8987
41.3117
31.8174
25.2941
20.6244
17.1721
14.5534
12.5255
10.9283
9.65259
8.62152
7.78008
7.08795
6.51523
6.03942
5.64327
5.31329
5.03875
4.8111
4.6232
4.46916
4.3439
4.24334
4.16408
4.10331
4.05878
4.02869
4.01168
4.00645
4.01185
4.02696
4.0508
4.08187
4.11888
4.16053
4.20588
4.25272
4.29967
4.34462
4.38713
4.42584
4.45984
4.48857
4.51202
4.53022
4.5444
4.55583
4.56647
4.57901
4.59658
4.62143
4.65413
4.69147
4.72593
4.74691
4000.2
674.786
238.306
126.499
80.6034
56.2824
41.6342
32.0902
25.5223
20.8109
17.3184
14.6611
12.5965
10.9649
9.65738
8.5973
7.72946
7.0133
6.4185
5.92216
5.50675
5.15865
4.867
4.62325
4.42007
4.25157
4.11268
3.9993
3.90795
3.83578
3.78044
3.73998
3.71293
3.69804
3.69405
3.70009
3.71513
3.738
3.76777
3.80303
3.84281
3.88549
3.92964
3.97331
4.01543
4.05471
4.09008
4.1213
4.14775
4.16949
4.18756
4.20301
4.21774
4.23416
4.25497
4.28193
4.31526
4.35186
4.38479
4.40454
4000.2
675.091
238.905
127.056
81.0432
56.642
41.9374
32.3494
25.7431
20.9955
17.4683
14.7775
12.6804
11.0179
9.68136
8.59455
7.70221
6.96364
6.34836
5.83311
5.40008
5.03534
4.72803
4.46919
4.25159
4.06927
3.91733
3.79165
3.68872
3.60565
3.53998
3.48973
3.4533
3.42921
3.41631
3.41355
3.42005
3.43483
3.45703
3.48561
3.51953
3.5574
3.59813
3.6395
3.68063
3.72
3.75653
3.78965
3.81913
3.8443
3.86624
3.88567
3.90438
3.92457
3.94846
3.97741
4.01125
4.04711
4.07859
4.09714
4000.21
675.384
239.476
127.581
81.4566
56.9802
42.2236
32.5958
25.9555
21.1768
17.6197
14.8995
12.7739
11.0839
9.72119
8.60974
7.69469
6.93529
6.3009
5.76815
5.31889
4.93894
4.61696
4.34396
4.11272
3.91735
3.75297
3.61553
3.50149
3.40799
3.33248
3.27287
3.22741
3.19454
3.17307
3.16205
3.1605
3.16751
3.18219
3.20389
3.23159
3.26404
3.3006
3.33909
3.37856
3.41763
3.45479
3.48938
3.5214
3.54991
3.57559
3.59893
3.62154
3.64534
3.67214
3.70292
3.73722
3.77234
3.80242
3.81988
4000.21
675.665
240.017
128.075
81.845
57.2976
42.493
32.8291
26.1587
21.3527
17.7697
15.0244
12.8741
11.1598
9.77375
8.64006
7.70409
6.92535
6.27325
5.72424
5.2599
4.86554
4.52972
4.24342
3.99938
3.7917
3.61555
3.4669
3.34226
3.23876
3.15375
3.08505
3.03079
2.98947
2.95983
2.94088
2.93176
2.93139
2.93901
2.95387
2.97522
3.00214
3.03374
3.06878
3.10588
3.1438
3.18091
3.21681
3.25089
3.28246
3.31163
3.33872
3.3651
3.39237
3.42191
3.45439
3.4891
3.5235
3.55228
3.56876
4000.22
675.932
240.529
128.54
82.2095
57.596
42.747
33.0503
26.3531
21.5232
17.9178
15.1506
12.9789
11.2434
9.83669
8.68302
7.72802
6.9316
6.26321
5.699
5.22013
4.81198
4.46301
4.16411
3.908
3.68876
3.50153
3.3423
3.20759
3.09442
3.00018
2.9226
2.85985
2.81035
2.77289
2.74636
2.72986
2.72252
2.72346
2.73192
2.74724
2.76846
2.79499
2.82569
2.85971
2.89581
2.93246
2.96899
3.00467
3.03873
3.07105
3.10168
3.13167
3.16221
3.19433
3.22834
3.26346
3.29716
3.32477
3.34032
4000.22
676.186
241.011
128.974
82.5502
57.8751
42.9851
33.2587
26.5376
21.6869
18.0621
15.2762
13.0862
11.3327
9.9079
8.73653
7.76466
6.95226
6.26879
5.68999
5.19715
4.77572
4.41419
4.10334
3.83583
3.60569
3.40805
3.23879
3.09443
2.97195
2.86878
2.78261
2.71164
2.65425
2.60928
2.57546
2.55189
2.53777
2.53227
2.53459
2.54403
2.55991
2.58143
2.6077
2.63796
2.67146
2.70678
2.74338
2.78004
2.81597
2.85111
2.885
2.91833
2.95194
2.98647
3.02193
3.05741
3.09041
3.11701
3.13168
4000.23
676.424
241.462
129.379
82.8677
58.1358
43.2085
33.4552
26.713
21.8439
18.2023
15.4005
13.1946
11.4256
9.98548
8.79892
7.81214
6.98559
6.28786
5.69516
5.18892
4.75474
4.38107
4.05879
3.78045
3.54
3.33251
3.15376
3.0002
2.8688
2.75698
2.66251
2.5836
2.51865
2.46641
2.42561
2.3953
2.37461
2.36281
2.35915
2.36289
2.37347
2.39023
2.41218
2.43862
2.46895
2.50233
2.53792
2.575
2.61219
2.64951
2.6863
2.72263
2.75904
2.79579
2.83259
2.86833
2.90081
2.92647
2.94044
4000.23
676.647
241.881
129.753
83.1619
58.3781
43.4171
33.6398
26.8787
21.9936
18.3375
15.5221
13.3032
11.5212
10.0679
8.86848
7.86911
7.0296
6.31866
5.71285
5.19383
4.74731
4.362
4.02869
3.74
3.48978
3.27293
3.08509
2.92263
2.78265
2.66252
2.56016
2.47361
2.40141
2.34218
2.29468
2.25784
2.23087
2.21291
2.20341
2.20163
2.20697
2.21884
2.23646
2.25924
2.28633
2.31726
2.35126
2.38778
2.4256
2.46448
2.50356
2.54248
2.58136
2.62011
2.65813
2.69418
2.72622
2.75098
2.76445
4000.23
676.853
242.266
130.097
83.4328
58.6023
43.611
33.8124
27.0348
22.1358
18.4675
15.6408
13.4109
11.6179
10.1536
8.94332
7.93317
7.08224
6.35928
5.74125
5.21022
4.75208
4.35558
4.01167
3.71295
3.45333
3.22745
3.03084
2.85987
2.71163
2.58359
2.47368
2.37988
2.3007
2.23477
2.18076
2.13762
2.10455
2.0807
2.06547
2.05832
2.05848
2.06547
2.07869
2.09756
2.12146
2.14983
2.18179
2.21701
2.25471
2.29436
2.33505
2.37606
2.41706
2.45759
2.49669
2.53309
2.56469
2.58862
2.60167
4000.24
677.041
242.616
130.409
83.6802
58.8085
43.7907
33.9735
27.1817
22.271
18.5923
15.7558
13.5167
11.7146
10.2415
9.02195
8.00267
7.14169
6.40828
5.77913
5.23686
4.76769
4.3605
4.00639
3.69803
3.42922
3.19456
2.98949
2.81039
2.65427
2.51867
2.40146
2.30072
2.21481
2.14238
2.08211
2.03294
1.99401
1.96448
1.94376
1.93124
1.9264
1.92858
1.93733
1.95218
1.97264
1.9981
2.02791
2.06147
2.09823
2.13783
2.17936
2.22186
2.26452
2.30652
2.34662
2.38333
2.41454
2.43789
2.45053
4000.24
677.211
242.93
130.689
83.9039
58.9965
43.9558
34.1228
27.3188
22.3981
18.7106
15.8663
13.6196
11.8105
10.3303
9.10389
8.07668
7.20691
6.46412
5.82523
5.27269
4.79324
4.37586
4.01183
3.69407
3.41631
3.17308
2.95984
2.77291
2.60929
2.46644
2.34222
2.23476
2.14233
2.06358
1.99729
1.94225
1.89769
1.86273
1.83674
1.81903
1.80921
1.80669
1.81097
1.82169
1.83845
1.8607
1.88797
1.91962
1.95502
1.9938
2.03534
2.07861
2.1224
2.16553
2.20634
2.2433
2.27434
2.29728
2.30937
4000.24
677.361
243.207
130.938
84.1036
59.1661
44.1065
34.2604
27.4464
22.5176
18.8231
15.9724
13.7197
11.9047
10.4189
9.18657
8.15287
7.2761
6.5253
5.87773
5.31613
4.82711
4.40034
4.02697
3.70005
3.41349
3.16202
2.94087
2.74636
2.57547
2.42562
2.29468
2.18073
2.08205
1.99722
1.92506
1.86447
1.81442
1.77414
1.74304
1.72036
1.70561
1.69848
1.69832
1.70487
1.71777
1.73659
1.76091
1.79021
1.82389
1.86134
1.90208
1.94526
1.98953
2.03331
2.0746
2.11172
2.14261
2.16516
2.17702
4000.25
677.491
243.447
131.153
84.2793
59.317
44.2421
34.3856
27.5638
22.6284
18.9283
16.0724
13.8151
11.9957
10.5052
9.26855
8.22962
7.3469
6.58936
5.93441
5.36505
4.86793
4.43262
4.05052
3.71491
3.41996
3.16044
2.93175
2.72987
2.55191
2.3953
2.25783
2.13756
2.03285
1.94218
1.86438
1.79834
1.74302
1.69766
1.66158
1.63408
1.61453
1.60274
1.59827
1.60062
1.60957
1.62472
1.64579
1.6723
1.70374
1.73946
1.7788
1.82103
1.86499
1.9088
1.95025
1.98737
2.0182
2.04036
2.05203
4000.25
677.606
243.653
131.339
84.4314
59.4493
44.3624
34.4979
27.6702
22.7301
19.0259
16.1663
13.9055
12.0825
10.5887
9.34859
8.30587
7.4184
6.65553
5.99495
5.4192
4.91506
4.47206
4.08199
3.73816
3.43497
3.16758
2.93143
2.72257
2.53781
2.37463
2.23085
2.10453
1.99399
1.89768
1.81442
1.74308
1.68266
1.63232
1.59134
1.55909
1.53495
1.5186
1.5098
1.50793
1.51283
1.52417
1.54173
1.56507
1.59377
1.62723
1.66477
1.70534
1.74815
1.79137
1.83246
1.86927
1.89986
1.92177
1.93333
4000.25
677.703
243.825
131.493
84.5598
59.5625
44.4669
34.5968
27.765
22.8217
19.1146
16.2525
13.9892
12.1639
10.6678
9.4251
8.37931
7.48837
6.72183
6.05663
5.47574
4.96564
4.51614
4.11911
3.76798
3.45722
3.18231
2.93912
2.72355
2.53235
2.36288
2.21297
2.08075
1.96452
1.86276
1.77424
1.69777
1.63239
1.57718
1.53143
1.49448
1.46587
1.44518
1.43189
1.42593
1.42671
1.43408
1.44787
1.46771
1.49325
1.52396
1.55913
1.59764
1.63851
1.68026
1.72041
1.7565
1.7866
1.80816
1.81945
4000.25
677.781
243.963
131.619
84.666
59.6575
44.5556
34.6819
27.8477
22.9024
19.1937
16.33
14.0654
12.2388
10.7413
9.49716
8.4496
7.55654
6.78726
6.11865
5.53336
5.01855
4.56389
4.16109
3.80351
3.48607
3.20426
2.95421
2.73217
2.53473
2.35928
2.20353
2.06558
1.94385
1.83684
1.74314
1.66166
1.59149
1.53151
1.48112
1.43963
1.4066
1.3815
1.36393
1.35372
1.35042
1.35368
1.36354
1.37965
1.40163
1.42911
1.4614
1.49733
1.53575
1.57516
1.61354
1.64852
1.67765
1.69864
1.70961
4000.25
677.843
244.071
131.717
84.7493
59.7335
44.6282
34.7528
27.9177
22.9719
19.2627
16.3987
14.1336
12.3065
10.8085
9.56358
8.51496
7.62061
6.84953
6.17871
5.59071
5.07237
4.61352
4.20598
3.84334
3.52008
3.23207
2.97569
2.74752
2.54425
2.36309
2.20179
2.05847
1.93138
1.81916
1.72052
1.6342
1.55927
1.49467
1.43974
1.39384
1.35639
1.32703
1.30524
1.29067
1.28314
1.28234
1.28807
1.30023
1.31836
1.3422
1.37108
1.40384
1.43938
1.47595
1.51172
1.5448
1.57261
1.5927
1.60319
4000.25
677.887
244.149
131.79
84.8127
59.7927
44.6861
34.8105
27.9755
23.0299
19.3211
16.4573
14.1925
12.3654
10.8672
9.62229
8.57354
7.67864
6.90667
6.23493
5.64556
5.12551
4.66414
4.25311
3.88604
3.55782
3.26447
3.00251
2.76872
2.56013
2.37369
2.20714
2.05864
1.92655
1.80935
1.70579
1.61474
1.53521
1.46609
1.40672
1.35645
1.31471
1.28106
1.25494
1.23613
1.2244
1.21945
1.22095
1.22893
1.24298
1.26282
1.28774
1.31686
1.34891
1.38229
1.4152
1.44573
1.47139
1.49011
1.50012
4000.25
677.916
244.2
131.839
84.8571
59.8358
44.7294
34.8546
28.0208
23.0765
19.3688
16.5061
14.2421
12.4157
10.9181
9.67345
8.62507
7.73058
6.95886
6.28674
5.6968
5.1757
4.71265
4.29918
3.92926
3.59777
3.30041
3.03368
2.79505
2.58157
2.39037
2.219
2.06565
1.92874
1.80686
1.69869
1.603
1.51888
1.44535
1.38157
1.32698
1.28093
1.24296
1.21263
1.18962
1.17358
1.16428
1.16165
1.16529
1.17493
1.19042
1.21119
1.23624
1.26447
1.29418
1.32399
1.35143
1.37467
1.39177
1.40073
4000.25
677.93
244.224
131.863
84.882
59.8625
44.7582
34.8858
28.0542
23.112
19.406
16.5449
14.2823
12.4571
10.9605
9.71664
8.66891
7.77515
7.00402
6.33263
5.74331
5.22205
4.75842
4.34402
3.97252
3.63871
3.33841
3.06834
2.82564
2.60776
2.41226
2.23658
2.07886
1.93749
1.81114
1.6985
1.59848
1.50996
1.43202
1.36399
1.3051
1.25482
1.21261
1.17805
1.15071
1.13025
1.11654
1.10957
1.10876
1.11398
1.1249
1.14105
1.16182
1.18577
1.21155
1.23768
1.26198
1.28268
1.29791
1.30599
4000.25
677.929
244.221
131.865
84.889
59.8742
44.7738
34.9046
28.0759
23.1362
19.4325
16.5735
14.3127
12.4893
10.9941
9.75144
8.705
7.81243
7.04263
6.37234
5.78377
5.26337
4.80039
4.3864
4.01477
3.68
3.3779
3.10514
2.85917
2.6377
2.43854
2.25927
2.09769
1.95233
1.82186
1.70505
1.6008
1.50811
1.42604
1.35377
1.29059
1.23612
1.18965
1.15073
1.11908
1.0942
1.07604
1.06447
1.05914
1.05977
1.06593
1.07731
1.09341
1.11274
1.13438
1.15658
1.17756
1.19566
1.20905
1.2161
4000.25
677.913
244.193
131.844
84.8785
59.8708
44.776
34.9113
28.0862
23.1496
19.4487
16.5922
14.3337
12.5122
11.0188
9.77754
8.73265
7.8417
7.07366
6.40522
5.81861
5.30009
4.83855
4.42544
4.05439
3.71977
3.41724
3.1433
2.89524
2.67114
2.46886
2.28633
2.12156
1.97275
1.83857
1.71793
1.60973
1.51298
1.42683
1.35055
1.28323
1.22448
1.17373
1.13048
1.0943
1.06496
1.04225
1.026
1.01602
1.01196
1.0133
1.0198
1.031
1.0457
1.06287
1.08089
1.09845
1.11358
1.12483
1.13083
4000.25
677.882
244.137
131.801
84.851
59.8537
44.7658
34.9063
28.0854
23.1524
19.4548
16.6012
14.3453
12.5262
11.0349
9.79549
8.75254
7.86377
7.09787
6.43148
5.84686
5.33016
4.87067
4.45942
4.08989
3.75617
3.45419
3.18037
2.93187
2.70642
2.50214
2.31719
2.14983
1.99814
1.86081
1.73673
1.62488
1.52434
1.4343
1.35396
1.28255
1.21959
1.16449
1.11684
1.07619
1.04232
1.01514
0.994128
0.979319
0.970279
0.966837
0.968441
0.974631
0.984518
0.996989
1.01094
1.02464
1.03683
1.04611
1.05084
4000.25
677.834
244.053
131.733
84.8046
59.8212
44.7427
34.8899
28.0743
23.1456
19.4515
16.6008
14.3476
12.531
11.0419
9.80443
8.76367
7.87713
7.11371
6.44986
5.86782
5.35385
4.89691
4.48833
4.12101
3.78967
3.48945
3.21669
2.96877
2.74309
2.53787
2.35118
2.18177
2.02793
1.88805
1.76105
1.64596
1.54192
1.44814
1.36382
1.28838
1.22117
1.16179
1.10978
1.06461
1.02611
0.994246
0.968585
0.948833
0.934851
0.926559
0.923205
0.924408
0.929284
0.937111
0.946722
0.95677
0.965973
0.973031
0.976528
4000.25
677.769
243.937
131.639
84.7383
59.7726
44.706
34.8614
28.0519
23.1282
19.4385
16.5916
14.3416
12.5277
11.0409
9.80547
8.767
7.88297
7.12221
6.46118
5.88204
5.37103
4.91707
4.51141
4.14718
3.81869
3.52099
3.25061
3.00446
2.77989
2.5749
2.3877
2.21701
2.06152
1.91972
1.79036
1.67249
1.56528
1.46798
1.37989
1.30042
1.22909
1.16536
1.10886
1.05923
1.01611
0.979472
0.948919
0.924297
0.905378
0.892066
0.883734
0.879925
0.880091
0.883337
0.888698
0.895102
0.901157
0.905982
0.908435
4000.25
677.685
243.789
131.517
84.6508
59.7074
44.6551
34.8203
28.0184
23.1006
19.4158
16.5732
14.3271
12.5166
11.0329
9.8
8.76372
7.88219
7.12417
6.4662
5.89039
5.38268
4.93214
4.53003
4.16915
3.84393
3.54965
3.28229
3.03857
2.81588
2.61219
2.42568
2.2548
2.09832
1.95517
1.82408
1.70397
1.59403
1.49353
1.40188
1.3186
1.24314
1.17506
1.114
1.0598
1.01194
0.97044
0.935045
0.905497
0.881645
0.863351
0.85006
0.841288
0.836744
0.835484
0.836671
0.839447
0.842528
0.845348
0.846839
4000.25
677.581
243.602
131.363
84.54
59.6242
44.5894
34.7667
27.9735
23.0628
19.3838
16.5462
14.3044
12.4978
11.0175
9.78761
8.75392
7.87531
7.12043
6.46575
5.89334
5.38931
4.94249
4.54423
4.18739
3.86602
3.57532
3.3113
3.07081
2.85103
2.64958
2.46461
2.2945
2.13796
1.99396
1.86155
1.73971
1.62752
1.52423
1.42932
1.34237
1.26295
1.19049
1.12495
1.06598
1.0134
0.967129
0.926754
0.892126
0.863329
0.839923
0.821764
0.808352
0.799133
0.7935
0.790717
0.789852
0.790254
0.791012
0.791676
4000.24
677.453
243.372
131.172
84.4024
59.5203
44.5071
34.6991
27.9169
23.0147
19.3428
16.5112
14.2746
12.4725
10.9962
9.76971
8.73893
7.86358
7.11224
6.46131
5.89275
5.39263
4.94988
4.55566
4.20279
3.88538
3.59865
3.33849
3.10146
2.88485
2.68622
2.50357
2.33512
2.17946
2.0355
1.90228
1.77903
1.66497
1.55931
1.46151
1.37119
1.28784
1.21114
1.14111
1.07756
1.02009
0.968729
0.923496
0.883931
0.850163
0.821759
0.798702
0.780583
0.76684
0.757079
0.750585
0.746418
0.744182
0.743062
0.742783
4000.24
677.298
243.09
130.938
84.2336
59.3933
44.4069
34.6174
27.8488
22.9573
19.2941
16.4699
14.2397
12.4431
10.9716
9.74926
8.72198
7.85001
7.10237
6.45537
5.89092
5.39495
4.9564
4.56635
4.21758
3.90421
3.62137
3.36496
3.13156
2.91829
2.72263
2.54253
2.37614
2.22197
2.07875
1.94543
1.82123
1.70555
1.59786
1.49742
1.40388
1.31682
1.23618
1.16174
1.09351
1.03129
0.974926
0.924715
0.880275
0.841535
0.808392
0.780607
0.757923
0.739926
0.726105
0.716082
0.708936
0.70414
0.701262
0.699998
4000.24
677.111
242.749
130.652
84.0288
59.2406
44.2878
34.5215
27.77
22.892
19.2398
16.4249
14.2026
12.4129
10.9473
9.7301
8.7071
7.83861
7.09477
6.45178
5.89143
5.39957
4.96506
4.57899
4.23412
3.92453
3.6453
3.39233
3.16218
2.95192
2.75904
2.58139
2.41713
2.26462
2.12249
1.98966
1.86518
1.74835
1.63864
1.53582
1.43942
1.34892
1.26441
1.18585
1.11305
1.04599
0.984819
0.929598
0.880396
0.837012
0.799262
0.766895
0.73992
0.717883
0.700347
0.686888
0.676904
0.66982
0.665399
0.663204
4000.23
676.89
242.338
130.308
83.7833
59.0601
44.1499
34.4131
27.6835
22.8226
19.1844
16.3811
14.1687
12.3874
10.929
9.71785
8.69992
7.8355
7.09495
6.4554
5.89859
5.4103
4.9793
4.59661
4.25498
3.94845
3.67213
3.42189
3.19429
2.98641
2.79577
2.62012
2.45759
2.3065
2.16547
2.03332
1.90889
1.79144
1.68025
1.57515
1.47595
1.38245
1.2944
1.21167
1.13464
1.06311
0.997312
0.937482
0.883651
0.835632
0.793625
0.757147
0.726124
0.700347
0.679329
0.662799
0.65006
0.640882
0.63493
0.632036
4000.23
676.635
241.854
129.901
83.4969
58.854
43.9972
34.2977
27.5956
22.7561
19.135
16.3457
14.1449
12.3733
10.9228
9.71819
8.70546
7.8451
7.1076
6.47054
5.9163
5.43052
5.00193
4.62152
4.28202
3.97748
3.70296
3.45443
3.22838
3.02193
2.83256
2.6581
2.49665
2.34653
2.20626
2.07453
1.95027
1.83255
1.72043
1.61343
1.51174
1.41538
1.32403
1.23775
1.15671
1.08098
1.01104
0.947009
0.88886
0.836765
0.790781
0.750636
0.716088
0.686866
0.6628
0.643385
0.628192
0.617097
0.609855
0.606273
4000.22
676.354
241.306
129.439
83.1781
58.6319
43.8399
34.1857
27.5168
22.7024
19.1009
16.3272
14.1387
12.3768
10.9341
9.73551
8.72748
7.87065
7.13562
6.50003
5.94664
5.46175
5.034
4.65432
4.31542
4.01139
3.73735
3.48923
3.26359
3.05748
2.86841
2.69429
2.53319
2.38335
2.24327
2.11166
1.98739
1.86941
1.75671
1.64857
1.54478
1.4457
1.35137
1.26193
1.17754
1.09829
1.02455
0.956783
0.895023
0.839451
0.789992
0.746466
0.708909
0.676899
0.650094
0.628267
0.611139
0.598346
0.589991
0.58572
4000.22
676.069
240.736
128.959
82.8536
58.4147
43.6952
34.0912
27.4584
22.6707
19.0892
16.3306
14.1535
12.4002
10.9639
9.76991
8.76496
7.90996
7.17579
6.54029
5.98639
5.50071
5.07216
4.6917
4.35206
4.0473
3.77247
3.52361
3.29729
3.09061
2.90098
2.72631
2.56469
2.41452
2.2743
2.14254
2.01813
1.89979
1.78652
1.67751
1.57238
1.4712
1.37444
1.28242
1.19535
1.11325
1.03651
0.965684
0.900915
0.842356
0.79019
0.744192
0.70421
0.669815
0.640953
0.617183
0.598433
0.584353
0.574969
0.570205
4000.21
675.826
240.234
128.536
82.5735
58.235
43.5834
34.0262
27.4264
22.6622
19.0977
16.3512
14.1827
12.4353
11.0028
9.811
8.80708
7.95223
7.21748
6.5809
6.02554
5.53811
5.10795
4.72592
4.38474
4.07851
3.80238
3.55228
3.32484
3.11705
2.92643
2.75098
2.58868
2.43795
2.29717
2.16502
2.0402
1.92147
1.80788
1.69839
1.59248
1.48995
1.39129
1.29748
1.2084
1.12429
1.0455
0.97241
0.90553
0.844937
0.790851
0.743044
0.701342
0.665441
0.635119
0.609977
0.590075
0.574958
0.56488
0.559755
4000.21
675.681
239.928
128.277
82.4055
58.131
43.5229
33.9953
27.4158
22.6658
19.1111
16.3712
14.2071
12.4624
11.0313
9.84015
8.83615
7.98073
7.24514
6.60741
6.05071
5.56184
5.13025
4.74693
4.40457
4.09725
3.82002
3.56896
3.34053
3.13191
2.94054
2.76434
2.60151
2.45028
2.30911
2.17671
2.05162
1.93274
1.81895
1.70913
1.60286
1.49963
1.40019
1.30542
1.21544
1.13032
1.05024
0.976065
0.907967
0.846341
0.791284
0.742549
0.699974
0.663323
0.632176
0.606408
0.585872
0.570258
0.559773
0.554496
)
;

boundaryField
{
    symmetry1
    {
        type            symmetryPlane;
    }
    symmetry2
    {
        type            symmetryPlane;
    }
    wall
    {
        type            omegaWallFunction;
        blending        binomial;
        n               2;
        value           nonuniform List<scalar> 
120
(
4000.21
4000.21
4000.22
4000.22
4000.23
4000.23
4000.24
4000.24
4000.24
4000.25
4000.25
4000.25
4000.25
4000.25
4000.25
4000.25
4000.25
4000.25
4000.25
4000.25
4000.25
4000.25