/*--------------------------------*- C++ -*----------------------------------*\
| =========                 |                                                 |
| \\      /  F ield         | OpenFOAM: The Open Source CFD Toolbox           |
|  \\    /   O peration     | Version:  2212                                  |
|   \\  /    A nd           | Website:  www.openfoam.com                      |
|    \\/     M anipulation  |                                                 |
\*---------------------------------------------------------------------------*/
FoamFile
{
    version     2.0;
    format      ascii;
    arch        "LSB;label=32;scalar=64";
    class       volScalarField;
    location    "1";
    object      p_e;
}
// * * * * * * * * * * * * * * * * * * * * * * * * * * * * * * * * * * * * * //

dimensions      [0 0 0 0 0 0 0];

internalField   nonuniform List<scalar> 
3600
(
2.8599e-06
1.39753e-05
3.74977e-05
7.51843e-05
0.000129039
0.000200476
0.000288746
0.000389757
0.000497011
0.000603614
0.000704266
0.000796045
0.000878285
0.000951848
0.00101835
0.00107955
0.00113696
0.00119167
0.00124441
0.00129572
0.00134585
0.00139467
0.00144214
0.0014883
0.00153314
0.00157659
0.00161852
0.00165882
0.00169734
0.00173395
0.00176847
0.00180076
0.00183061
0.00185783
0.00188227
0.00190381
0.00192247
0.00193829
0.00195138
0.00196188
0.00196996
0.00197576
0.00197941
0.00198094
0.00198034
0.0019777
0.00197277
0.00196546
0.00195563
0.00194304
0.00192736
0.00190814
0.00188473
0.0018564
0.00182237
0.00178217
0.00173649
0.00168865
0.00164617
0.00162009
1.39753e-05
0.000443173
0.00155745
0.00297655
0.00491062
0.00746261
0.010597
0.0141324
0.0178394
0.0214952
0.0249349
0.0280705
0.0308845
0.0334063
0.0356883
0.0377873
0.0397525
0.0416201
0.0434142
0.0451521
0.0468421
0.0484829
0.0500737
0.0516163
0.0531105
0.0545542
0.0559441
0.0572764
0.0585469
0.0597514
0.0608852
0.0619432
0.0629198
0.0638091
0.0646062
0.0653084
0.0659158
0.0664295
0.066854
0.0671946
0.0674563
0.0676442
0.0677623
0.0678121
0.067793
0.0677077
0.0675486
0.0673126
0.0669947
0.0665872
0.0660791
0.0654553
0.0646946
0.0637723
0.0626619
0.0613472
0.0598496
0.0582774
0.0568786
0.0560185
3.74977e-05
0.00155745
0.0122913
0.0312561
0.0522005
0.076137
0.103083
0.131282
0.159122
0.185342
0.209203
0.230437
0.249134
0.265597
0.280217
0.29338
0.305415
0.316573
0.327027
0.336897
0.346253
0.355144
0.363596
0.371636
0.379279
0.386533
0.3934
0.399877
0.405961
0.411647
0.416928
0.421795
0.426236
0.430238
0.433793
0.436898
0.439565
0.441801
0.443637
0.445101
0.446222
0.447022
0.447524
0.447735
0.447654
0.447289
0.446614
0.445609
0.444251
0.442502
0.44031
0.437598
0.434261
0.430169
0.425175
0.419168
0.412202
0.404751
0.398005
0.393802
7.51844e-05
0.00297655
0.0312561
0.124107
0.244682
0.343656
0.419956
0.480737
0.531105
0.573796
0.610334
0.641689
0.668581
0.691662
0.711551
0.728825
0.743984
0.757453
0.769554
0.780557
0.790656
0.799953
0.808542
0.816494
0.823859
0.830685
0.837004
0.842843
0.848225
0.853167
0.857683
0.861781
0.865469
0.868751
0.871628
0.874112
0.876219
0.877965
0.879375
0.880486
0.881325
0.88191
0.882268
0.88241
0.882338
0.882038
0.881521
0.880749
0.879712
0.878369
0.876672
0.874551
0.871903
0.868593
0.864458
0.859344
0.853229
0.846485
0.840209
0.836221
0.000129039
0.00491062
0.0522006
0.244682
0.53391
0.719085
0.802886
0.841819
0.864317
0.881748
0.898026
0.914205
0.929902
0.944576
0.957794
0.969417
0.979484
0.988185
0.995734
1.00204
1.00716
1.01177
1.01596
1.01977
1.02323
1.0264
1.0293
1.03195
1.03436
1.03656
1.03855
1.04033
1.04193
1.04333
1.04454
1.04557
1.04643
1.04713
1.04766
1.04807
1.04836
1.04855
1.04864
1.04865
1.04859
1.04843
1.0482
1.04788
1.04745
1.0469
1.0462
1.04532
1.04419
1.04273
1.04085
1.03842
1.03541
1.03199
1.02873
1.02663
0.000200476
0.00746262
0.0761371
0.343657
0.719086
0.934536
1.01146
1.02897
1.02818
1.02354
1.02107
1.02245
1.02694
1.03349
1.04084
1.04813
1.05485
1.06078
1.06589
1.07031
1.07415
1.07746
1.08037
1.08294
1.08521
1.08723
1.08904
1.09066
1.09212
1.09342
1.09458
1.0956
1.09649
1.09726
1.09791
1.09844
1.09886
1.09917
1.09939
1.09952
1.09959
1.09959
1.09956
1.09948
1.09939
1.09923
1.09906
1.09886
1.0986
1.09829
1.09789
1.09737
1.09669
1.09576
1.0945
1.09281
1.09063
1.0881
1.08567
1.08411
0.000288747
0.010597
0.103083
0.419956
0.802886
1.01146
1.08419
1.1038
1.09802
1.08482
1.07288
1.06546
1.06287
1.06437
1.06831
1.07354
1.07908
1.08434
1.08901
1.09299
1.09628
1.09901
1.10131
1.10324
1.10487
1.10626
1.10745
1.10848
1.10938
1.11015
1.11081
1.11138
1.11185
1.11223
1.11253
1.11275
1.1129
1.11297
1.11298
1.11293
1.11285
1.11271
1.11257
1.1124
1.11226
1.11206
1.11189
1.11171
1.11152
1.1113
1.11102
1.11066
1.11017
1.10948
1.1085
1.10715
1.10541
1.10343
1.10159
1.10044
0.000389758
0.0141325
0.131283
0.480738
0.841819
1.02897
1.1038
1.12892
1.12652
1.11298
1.09754
1.08485
1.07673
1.07322
1.07341
1.07603
1.08
1.08443
1.08873
1.09261
1.09595
1.09874
1.10106
1.10295
1.10448
1.10573
1.10675
1.10759
1.10828
1.10884
1.1093
1.10966
1.10993
1.11013
1.11027
1.11033
1.11034
1.11027
1.11016
1.11
1.10981
1.10957
1.10934
1.10908
1.10886
1.10859
1.10836
1.10814
1.10792
1.10767
1.10737
1.107
1.1065
1.1058
1.10483
1.10353
1.10193
1.10023
1.09877
1.09793
0.000497013
0.0178394
0.159122
0.531105
0.864316
1.02819
1.09803
1.12652
1.12982
1.12046
1.10623
1.09198
1.08053
1.07306
1.0696
1.06937
1.07148
1.07487
1.07879
1.08272
1.08639
1.08961
1.09237
1.09465
1.09651
1.09801
1.09921
1.10016
1.10092
1.1015
1.10195
1.10228
1.10251
1.10264
1.10271
1.10271
1.10265
1.10251
1.10233
1.10209
1.10182
1.1015
1.10117
1.10083
1.10051
1.10015
1.09982
1.09949
1.09918
1.09883
1.09842
1.09792
1.09728
1.09643
1.09529
1.09387
1.09226
1.09073
1.08959
1.08903
0.000603617
0.0214953
0.185342
0.573797
0.881751
1.02354
1.08483
1.11298
1.12046
1.11646
1.1063
1.09367
1.08142
1.0715
1.06489
1.06168
1.06141
1.06326
1.06639
1.07015
1.07406
1.07779
1.08116
1.08407
1.08653
1.08856
1.09019
1.0915
1.09252
1.0933
1.09387
1.09429
1.09456
1.0947
1.09476
1.09473
1.09463
1.09444
1.0942
1.0939
1.09355
1.09316
1.09273
1.09227
1.09183
1.09136
1.0909
1.09044
1.08998
1.08948
1.0889
1.08821
1.08736
1.08627
1.0849
1.0833
1.08166
1.0803
1.07951
1.07925
0.00070427
0.024935
0.209204
0.610335
0.898025
1.02107
1.07287
1.09754
1.10622
1.1063
1.10095
1.09203
1.08143
1.07105
1.06245
1.05655
1.05357
1.05323
1.0549
1.05792
1.06167
1.06568
1.06959
1.07319
1.07639
1.07913
1.08139
1.08326
1.08472
1.08587
1.0867
1.08731
1.08769
1.08789
1.08799
1.08795
1.08783
1.08758
1.08729
1.08692
1.08649
1.086
1.08545
1.08488
1.0843
1.08369
1.08307
1.08245
1.08181
1.08111
1.08032
1.0794
1.07828
1.07691
1.07528
1.07351
1.07186
1.07075
1.07035
1.07041
0.000796049
0.0280706
0.230438
0.641692
0.914209
1.02245
1.06545
1.08485
1.09197
1.09367
1.09203
1.08736
1.0801
1.07133
1.06251
1.05496
1.0496
1.04678
1.04636
1.04791
1.05085
1.05463
1.05876
1.06289
1.06678
1.07029
1.07332
1.0759
1.07798
1.07963
1.08088
1.08179
1.08237
1.08271
1.08288
1.08285
1.08272
1.08241
1.08206
1.0816
1.08107
1.08047
1.07979
1.07906
1.07833
1.07756
1.07674
1.07594
1.07509
1.07417
1.07313
1.07194
1.07053
1.06887
1.06699
1.06508
1.06351
1.06271
1.06276
1.06317
0.00087829
0.0308847
0.249135
0.66858
0.929901
1.02694
1.06287
1.07673
1.08053
1.08141
1.08143
1.0801
1.07661
1.07087
1.0636
1.05601
1.04931
1.04438
1.04167
1.04117
1.0426
1.04546
1.04927
1.05353
1.05789
1.06208
1.06589
1.06925
1.07208
1.0744
1.07621
1.07755
1.07846
1.07902
1.07934
1.07937
1.07924
1.07888
1.07846
1.07791
1.07727
1.07653
1.07568
1.07479
1.07387
1.07291
1.07189
1.07087
1.06978
1.0686
1.06729
1.06581
1.06411
1.06217
1.06007
1.05809
1.05667
1.05627
1.05681
1.05757
0.000951854
0.0334065
0.265598
0.691663
0.944572
1.03348
1.06436
1.07322
1.07305
1.07149
1.07105
1.07133
1.07087
1.0685
1.06399
1.05791
1.05131
1.04529
1.04072
1.0381
1.03755
1.03886
1.04165
1.04547
1.04985
1.05443
1.05889
1.06302
1.06666
1.06977
1.07228
1.0742
1.07558
1.07648
1.07704
1.0772
1.07712
1.07674
1.07626
1.07562
1.07486
1.07397
1.07294
1.07185
1.07073
1.06956
1.06829
1.06703
1.0657
1.06423
1.06263
1.06085
1.05885
1.05665
1.05438
1.05241
1.05125
1.0513
1.05235
1.05345
0.00101836
0.0356885
0.280218
0.711552
0.957794
1.04083
1.0683
1.0734
1.06959
1.06488
1.06245
1.06251
1.0636
1.06399
1.06252
1.05897
1.05382
1.04802
1.04257
1.03831
1.03578
1.03518
1.03639
1.03911
1.04294
1.04745
1.05223
1.05695
1.06134
1.06525
1.06856
1.0712
1.07321
1.07462
1.07554
1.07592
1.07598
1.07565
1.07515
1.07443
1.07354
1.07251
1.07129
1.06999
1.06864
1.06724
1.06572
1.0642
1.0626
1.06082
1.05891
1.05684
1.05456
1.05214
1.04978
1.0479
1.04708
1.04762
1.04918
1.05059
0.00107956
0.0377875
0.293381
0.728826
0.969417
1.04812
1.07353
1.07602
1.06937
1.06168
1.05655
1.05496
1.05601
1.05791
1.05897
1.05818
1.05534
1.05093
1.04577
1.0408
1.03681
1.03438
1.03374
1.03488
1.03755
1.0414
1.04601
1.05096
1.05589
1.06052
1.06463
1.06805
1.07079
1.07283
1.07422
1.07498
1.07527
1.07509
1.07465
1.07391
1.07295
1.07179
1.0704
1.06889
1.06732
1.06568
1.06389
1.0621
1.06024
1.05815
1.05593
1.05359
1.05107
1.04849
1.04611
1.04442
1.044
1.04506
1.04709
1.04879
0.00113696
0.0397526
0.305416
0.743987
0.979489
1.05485
1.07908
1.08
1.07149
1.06141
1.05357
1.0496
1.04931
1.05131
1.05383
1.05535
1.05503
1.05274
1.0489
1.04426
1.03968
1.03593
1.03358
1.03293
1.03402
1.03665
1.04052
1.0452
1.05028
1.05536
1.06012
1.06425
1.06772
1.07048
1.07256
1.07387
1.0746
1.07475
1.07451
1.07388
1.07294
1.07168
1.07013
1.06843
1.06663
1.06471
1.06262
1.06051
1.05834
1.05596
1.05346
1.05089
1.04821
1.04556
1.04326
1.04185
1.04188
1.04345
1.04591
1.04785
0.00119168
0.0416203
0.316574
0.757452
0.988181
1.06077
1.08433
1.08442
1.07486
1.06326
1.05323
1.04678
1.04438
1.04529
1.04802
1.05094
1.05274
1.05274
1.05084
1.04743
1.0432
1.03895
1.03541
1.03314
1.03249
1.03354
1.03613
1.03998
1.04467
1.04975
1.05477
1.0595
1.0637
1.06728
1.07018
1.07226
1.07365
1.07435
1.07452
1.07414
1.07334
1.07208
1.07046
1.06859
1.06657
1.06437
1.06194
1.0595
1.05697
1.05426
1.05145
1.04862
1.04581
1.04323
1.04112
1.04009
1.04059
1.04265
1.04549
1.04761
0.00124442
0.0434144
0.327028
0.769556
0.995738
1.0659
1.08901
1.08873
1.07878
1.06639
1.0549
1.04636
1.04167
1.04073
1.04257
1.04578
1.0489
1.05084
1.05103
1.04939
1.04629
1.04238
1.03839
1.03501
1.03282
1.03217
1.03315
1.03565
1.03935
1.04385
1.04879
1.05383
1.05862
1.06298
1.06671
1.06972
1.07197
1.07342
1.07425
1.07437
1.07391
1.07282
1.07122
1.06926
1.06707
1.0646
1.06185
1.05905
1.05614
1.05308
1.04993
1.04684
1.04391
1.04138
1.0396
1.03904
1.04003
1.04254
1.04568
1.04794
0.00129573
0.0451523
0.336898
0.78056
1.00205
1.07032
1.093
1.09262
1.08273
1.07016
1.05793
1.04792
1.04118
1.03811
1.03832
1.0408
1.04426
1.04743
1.04939
1.04965
1.04817
1.0453
1.04161
1.03781
1.03455
1.03239
1.03167
1.03247
1.03467
1.03811
1.04244
1.04734
1.05237
1.05729
1.06182
1.06581
1.06908
1.07153
1.07326
1.07413
1.07425
1.07358
1.07215
1.07025
1.06802
1.0653
1.06226
1.05912
1.05583
1.0524
1.04892
1.04557
1.04253
1.04009
1.03863
1.03858
1.04009
1.043
1.04637
1.04871
0.00134585
0.0468422
0.346254
0.790657
1.00716
1.07415
1.09629
1.09596
1.08639
1.07407
1.06168
1.05086
1.04261
1.03756
1.03579
1.03682
1.03968
1.0432
1.04629
1.04816
1.0484
1.04698
1.04423
1.04068
1.03699
1.03376
1.0315
1.0305
1.03097
1.03288
1.03607
1.04025
1.04506
1.05019
1.05528
1.0602
1.06455
1.06816
1.07105
1.07296
1.07392
1.07396
1.07295
1.0713
1.06915
1.0663
1.06305
1.05962
1.05596
1.05219
1.04839
1.04482
1.04171
1.03939
1.03824
1.03865
1.04066
1.04393
1.04744
1.04982
0.00139468
0.0484831
0.355145
0.799954
1.01177
1.07746
1.09901
1.09874
1.08961
1.07779
1.06567
1.05462
1.04546
1.03886
1.03518
1.03438
1.03593
1.03894
1.04238
1.04529
1.04697
1.0471
1.04564
1.0429
1.03938
1.03564
1.03222
1.02964
1.0283
1.02841
1.02998
1.03289
1.03687
1.04168
1.04698
1.05259
1.05797
1.06286
1.06708
1.07033
1.07239
1.07342
1.0732
1.07206
1.07016
1.06735
1.06405
1.06041
1.05645
1.05239
1.04833
1.04459
1.04146
1.03928
1.03844
1.03925
1.04165
1.04518
1.04878
1.05115
0.00144215
0.050074
0.363597
0.808545
1.01596
1.08037
1.10131
1.10106
1.09237
1.08115
1.06958
1.05876
1.04927
1.04165
1.03639
1.03374
1.03358
1.0354
1.03838
1.0416
1.04421
1.04563
1.04554
1.04393
1.04104
1.0373
1.03326
1.02949
1.02651
1.02473
1.02438
1.02552
1.02809
1.032
1.03707
1.043
1.04921
1.05531
1.06091
1.06562
1.06908
1.07139
1.07229
1.07205
1.07069
1.06821
1.06502
1.06131
1.0572
1.05294
1.04871
1.04486
1.04175
1.03976
1.03922
1.04038
1.04306
1.04673
1.05031
1.05263
0.00148831
0.0516166
0.371637
0.816495
1.01977
1.08294
1.10324
1.10294
1.09465
1.08407
1.07319
1.06289
1.05353
1.04547
1.03912
1.03488
1.03293
1.03314
1.03501
1.03779
1.04067
1.04289
1.04393
1.04345
1.04146
1.03815
1.03399
1.02949
1.02522
1.02169
1.01932
1.0184
1.01908
1.0216
1.02593
1.03169
1.03834
1.04531
1.05216
1.0584
1.06349
1.06732
1.06968
1.0707
1.07024
1.06851
1.06573
1.06218
1.05807
1.05376
1.04947
1.04561
1.04259
1.04081
1.04056
1.042
1.04488
1.04856
1.05204
1.05426
0.00153315
0.0531108
0.379281
0.82386
1.02323
1.0852
1.10487
1.10448
1.09651
1.08653
1.07639
1.06678
1.05789
1.04985
1.04294
1.03755
1.03402
1.03249
1.03282
1.03454
1.03698
1.03937
1.04104
1.04144
1.04035
1.03773
1.03385
1.02906
1.02391
1.01893
1.01467
1.01161
1.01023
1.01108
1.01422
1.01928
1.02577
1.03309
1.0408
1.04836
1.0551
1.0607
1.0648
1.06737
1.06829
1.06767
1.06575
1.06268
1.05887
1.05472
1.05052
1.04679
1.04395
1.0424
1.04241
1.04406
1.04704
1.05066
1.05396
1.05605
0.00157659
0.0545545
0.386535
0.830686
1.0264
1.08723
1.10627
1.10574
1.09801
1.08856
1.07913
1.07029
1.06208
1.05443
1.04745
1.0414
1.03665
1.03353
1.03216
1.03238
1.03375
1.03563
1.03729
1.03814
1.03773
1.03582
1.0324
1.02767
1.02203
1.01602
1.01023
1.00531
1.00227
1.00164
1.00326
1.00691
1.01225
1.01913
1.02714
1.03551
1.04361
1.05097
1.05695
1.06149
1.06423
1.06521
1.06456
1.0625
1.05932
1.05563
1.05176
1.04832
1.04577
1.0445
1.04474
1.04653
1.04953
1.05299
1.05607
1.05801
0.00161853
0.0559444
0.393401
0.837005
1.0293
1.08904
1.10745
1.10675
1.09921
1.09019
1.08139
1.07333
1.0659
1.05889
1.05223
1.04601
1.04052
1.03613
1.03315
1.03166
1.03149
1.0322
1.03324
1.03398
1.03383
1.03239
1.02942
1.02493
1.01919
1.01263
1.00589
1.00007
0.995467
0.993151
0.993006
0.995011
0.99922
1.00489
1.01203
1.02027
1.0292
1.038
1.04584
1.05249
1.05741
1.0604
1.0616
1.0611
1.05909
1.05626
1.05304
1.05011
1.04798
1.04703
1.04749
1.04937
1.0523
1.05555
1.05836
1.06011
0.00165883
0.0572768
0.399879
0.842844
1.03195
1.09066
1.10849
1.10759
1.10017
1.0915
1.08326
1.07589
1.06925
1.06302
1.05695
1.05096
1.0452
1.03998
1.03565
1.03246
1.0305
1.02963
1.02948
1.02947
1.02904
1.02765
1.02492
1.02071
1.01514
1.00859
1.00191
0.995566
0.990369
0.986445
0.984158
0.983839
0.985804
0.990158
0.996589
1.00429
1.0128
1.02205
1.03143
1.04002
1.04733
1.05276
1.05637
1.05796
1.05773
1.05626
1.05411
1.052
1.05046
1.04991
1.0506
1.05251
1.0553
1.05828
1.06078
1.06233
0.00169736
0.0585474
0.405963
0.848226
1.03436
1.09211
1.10937
1.10827
1.10091
1.09251
1.08472
1.07797
1.07208
1.06667
1.06135
1.0559
1.05029
1.04468
1.03935
1.03467
1.03097
1.0283
1.02651
1.02521
1.02389
1.02202
1.01917
1.01513
1.00996
1.00409
0.998126
0.992031
0.986097
0.980703
0.976521
0.974139
0.973957
0.975957
0.980312
0.986982
0.995477
1.00481
1.01439
1.02432
1.03382
1.04182
1.04821
1.05248
1.05468
1.05522
1.05466
1.05375
1.05304
1.05303
1.05398
1.05591
1.0585
1.06118
1.06335
1.06469
0.00173396
0.059752
0.411649
0.853169
1.03656
1.09342
1.11015
1.10884
1.1015
1.0933
1.08586
1.07963
1.0744
1.06976
1.06525
1.06054
1.05537
1.04975
1.04385
1.0381
1.03288
1.02841
1.02473
1.02168
1.01891
1.01601
1.0126
1.00857
1.00409
0.999471
0.994129
0.988301
0.981769
0.975257
0.96944
0.965106
0.962764
0.96269
0.965129
0.969908
0.976823
0.985737
0.996154
1.00672
1.0172
1.0275
1.03684
1.04422
1.04944
1.0527
1.05429
1.05503
1.0555
1.05622
1.05751
1.05948
1.06186
1.06423
1.06604
1.0672
0.00176849
0.0608859
0.416931
0.857684
1.03855
1.09457
1.11081
1.1093
1.10195
1.09387
1.0867
1.08088
1.07622
1.07227
1.06856
1.06464
1.06013
1.05479
1.04881
1.04245
1.03608
1.02998
1.02438
1.01932
1.01467
1.01022
1.00587
1.0019
0.998125
0.994127
0.989514
0.983711
0.976899
0.969637
0.962572
0.956523
0.952137
0.949963
0.950319
0.953273
0.958786
0.966436
0.975871
0.987018
0.999283
1.01075
1.02217
1.03285
1.0415
1.04807
1.05251
1.05545
1.05753
1.05927
1.06106
1.06313
1.06538
1.06743
1.06891
1.06987
0.00180078
0.061944
0.421798
0.861783
1.04033
1.0956
1.11137
1.10966
1.10228
1.09429
1.08731
1.08179
1.07755
1.07419
1.07121
1.06808
1.06428
1.05952
1.05384
1.04733
1.04025
1.03289
1.02552
1.0184
1.0116
1.00529
1.00005
0.995559
0.992029
0.988292
0.983711
0.977944
0.971099
0.963447
0.955556
0.948152
0.942005
0.937742
0.935954
0.936858
0.94062
0.947024
0.955782
0.966372
0.978505
0.992064
1.0055
1.01824
1.03048
1.04082
1.04871
1.05452
1.05875
1.0619
1.06447
1.06681
1.06898
1.07076
1.07199
1.07272
0.00183063
0.0629206
0.426239
0.865471
1.04193
1.09649
1.11185
1.10993
1.10251
1.09457
1.0877
1.08237
1.07846
1.07559
1.07324
1.07083
1.06777
1.06375
1.05866
1.05241
1.04508
1.03687
1.02809
1.01908
1.01022
1.00226
0.995459
0.990367
0.986102
0.981783
0.976909
0.971064
0.964208
0.956413
0.948033
0.939701
0.932138
0.926042
0.922122
0.92086
0.922533
0.927322
0.935006
0.945193
0.957544
0.97121
0.986142
1.00185
1.01629
1.03046
1.04234
1.05166
1.05867
1.06376
1.06748
1.07035
1.07259
1.07425
1.07531
1.07585
0.00185786
0.06381
0.430242
0.868753
1.04333
1.09726
1.11223
1.11013
1.10264
1.0947
1.0879
1.08271
1.07903
1.07651
1.07465
1.07289
1.07055
1.06735
1.063
1.05734
1.05021
1.04168
1.03202
1.02161
1.01108
1.00164
0.993162
0.986457
0.9807
0.975254
0.969627
0.96342
0.956406
0.948521
0.939891
0.930957
0.922326
0.914688
0.908823
0.905377
0.904877
0.907624
0.913753
0.92306
0.935158
0.949369
0.965174
0.982145
1.00025
1.01681
1.03284
1.04623
1.05668
1.06437
1.06978
1.07355
1.07614
1.07787
1.07883
1.07926
0.00188231
0.0646075
0.433799
0.871633
1.04454
1.09791
1.11253
1.11027
1.10271
1.09476
1.08799
1.08287
1.07933
1.07703
1.07551
1.0742
1.07253
1.07016
1.0667
1.06182
1.0553
1.04698
1.03707
1.02593
1.01422
1.00327
0.993023
0.984169
0.976521
0.969433
0.962561
0.955532
0.948036
0.93992
0.931101
0.921762
0.912407
0.903548
0.895994
0.890478
0.887779
0.888318
0.892472
0.90033
0.911635
0.925929
0.942614
0.961032
0.980464
1.00103
1.01981
1.03755
1.05207
1.0631
1.07088
1.07616
1.07952
1.08152
1.08251
1.08302
0.00190388
0.0653104
0.436907
0.874118
1.04558
1.09844
1.11275
1.11033
1.1027
1.09472
1.08794
1.08283
1.07935
1.07718
1.07589
1.07495
1.07385
1.07221
1.06965
1.06575
1.06011
1.05254
1.04295
1.03168
1.0193
1.00694
0.995031
0.983847
0.974137
0.965099
0.956518
0.948149
0.939714
0.930987
0.921803
0.912104
0.902129
0.892388
0.883509
0.876192
0.871343
0.869646
0.871543
0.877503
0.887476
0.901175
0.918162
0.937715
0.959062
0.981245
1.00407
1.02502
1.04405
1.05913
1.07012
1.07765
1.08235
1.08505
1.08636
1.08695
0.00192254
0.0659182
0.439575
0.876229
1.04643
1.09886
1.1129
1.11033
1.10264
1.09462
1.08782
1.0827
1.07921
1.07709
1.07596
1.07525
1.07459
1.07362
1.07196
1.06911
1.06457
1.05801
1.04924
1.0384
1.02583
1.01228
0.999243
0.985804
0.973944
0.962748
0.952132
0.941998
0.932164
0.922369
0.912442
0.90219
0.891658
0.88118
0.871202
0.862378
0.855584
0.851716
0.851317
0.854997
0.863128
0.87563
0.892231
0.912265
0.934968
0.959295
0.984258
1.00896
1.03175
1.05146
1.06653
1.0772
1.08406
1.08798
1.09004
1.0909
0.00193836
0.0664318
0.441811
0.877971
1.04713
1.09917
1.11298
1.11028
1.10251
1.09445
1.08759
1.08243
1.0789
1.07677
1.07569
1.07512
1.07476
1.07434
1.07347
1.07158
1.06819
1.06285
1.05525
1.04527
1.03303
1.01908
1.00485
0.990119
0.97591
0.96265
0.949934
0.937735
0.926031
0.914681
0.903543
0.892382
0.881134
0.869907
0.859014
0.848974
0.840519
0.83458
0.831919
0.833172
0.839108
0.849856
0.865366
0.885148
0.908481
0.934344
0.961416
0.988838
1.01494
1.03892
1.05871
1.07349
1.08352
1.0895
1.09277
1.09414
0.00195145
0.0668563
0.443647
0.879386
1.04767
1.0994
1.11299
1.11017
1.10234
1.09421
1.0873
1.08206
1.07846
1.07628
1.07517
1.07467
1.07454
1.07454
1.07427
1.07329
1.07104
1.06704
1.06082
1.05208
1.04072
1.02706
1.01195
0.996493
0.980227
0.965049
0.950246
0.935884
0.922064
0.908778
0.895965
0.883441
0.871119
0.858964
0.847151
0.836022
0.826189
0.818381
0.813468
0.812427
0.815816
0.824374
0.838184
0.856977
0.880188
0.906788
0.935484
0.964696
0.994141
1.02086
1.04533
1.06492
1.07907
1.0881
1.0933
1.09564
0.00196197
0.0671975
0.445114
0.880497
1.04808
1.09953
1.11294
1.11001
1.1021
1.09391
1.08693
1.08161
1.07792
1.07563
1.07443
1.0739
1.07385
1.0741
1.0743
1.07408
1.07294
1.07025
1.06549
1.05821
1.04819
1.03532
1.02009
1.0041
0.9868
0.969784
0.953154
0.936751
0.920767
0.905298
0.890408
0.87612
0.862318
0.848863
0.83596
0.823711
0.812576
0.803116
0.79623
0.792845
0.793702
0.799677
0.811299
0.828387
0.85062
0.877165
0.906626
0.937494
0.968205
0.998802
1.02548
1.04979
1.06852
1.08152
1.08939
1.09313
0.0019701
0.0674608
0.446241
0.881342
1.04838
1.0996
1.11285
1.10981
1.10182
1.09356
1.08649
1.08106
1.07724
1.07481
1.07348
1.07286
1.07282
1.07319
1.07373
1.07409
1.07381
1.07233
1.06905
1.06339
1.0549
1.04338
1.02896
1.01254
0.995261
0.97664
0.958621
0.940483
0.922414
0.904776
0.887684
0.871228
0.855494
0.840391
0.826053
0.812492
0.799985
0.789034
0.780248
0.77459
0.773008
0.776319
0.785239
0.800073
0.820544
0.846116
0.875477
0.907093
0.939448
0.970628
1.00121
1.02719
1.04998
1.06703
1.07805
1.08354
0.00197593
0.0676497
0.447047
0.881931
1.04856
1.09961
1.11272
1.10958
1.10151
1.09316
1.08599
1.08046
1.07651
1.07395
1.07247
1.07172
1.07158
1.07198
1.07273
1.07345
1.07381
1.07324
1.0712
1.06714
1.06047
1.05075
1.03775
1.0218
1.00461
0.985543
0.96627
0.946888
0.927204
0.907522
0.888223
0.869521
0.851571
0.834403
0.818223
0.803024
0.788974
0.776412
0.765836
0.758121
0.754069
0.754585
0.760554
0.77263
0.790669
0.814382
0.842672
0.874212
0.907207
0.939848
0.97047
0.999805
1.02328
1.0429
1.05668
1.06368
0.00197956
0.0677671
0.447545
0.882286
1.04865
1.09956
1.11257
1.10934
1.10118
1.09273
1.08546
1.0798
1.0757
1.07296
1.07131
1.07041
1.07012
1.07043
1.07118
1.07215
1.07297
1.07317
1.07226
1.06972
1.0648
1.05694
1.04577
1.03132
1.01426
0.996009
0.975749
0.95567
0.934892
0.913651
0.892369
0.871403
0.851149
0.831728
0.813344
0.796176
0.780266
0.765933
0.753538
0.743695
0.737176
0.734946
0.737897
0.746641
0.761673
0.782822
0.809169
0.839416
0.872042
0.90509
0.936736
0.965043
0.991068
1.01136
1.02536
1.03291
0.00198106
0.0678159
0.447751
0.882422
1.04866
1.09949
1.11241
1.10909
1.10083
1.09228
1.08488
1.07908
1.07481
1.07188
1.07004
1.06894
1.06848
1.06864
1.06934
1.07034
1.07136
1.0721
1.07208
1.07076
1.06748
1.0616
1.05258
1.04005
1.02423
1.00663
0.986931
0.966295
0.945097
0.922972
0.900236
0.877404
0.854873
0.833078
0.812342
0.792785
0.774686
0.758213
0.743718
0.731641
0.722705
0.717762
0.71761
0.722848
0.734335
0.752074
0.775543
0.803637
0.834653
0.867081
0.898844
0.927758
0.9525
0.972991
0.987901
0.99588
0.00198043
0.0677959
0.447666
0.882346
1.04859
1.09939
1.11226
1.10886
1.1005
1.09183
1.0843
1.07833
1.07388
1.07075
1.06868
1.06736
1.06666
1.0666
1.06711
1.06804
1.06917
1.0702
1.07075
1.07033
1.06838
1.0643
1.05749
1.04745
1.03391
1.01723
0.999279
0.978474
0.957476
0.935076
0.911546
0.887375
0.863025
0.838998
0.815736
0.793654
0.773076
0.754092
0.737162
0.722699
0.711122
0.703323
0.699916
0.701587
0.709123
0.722848
0.742614
0.767447
0.795805
0.826492
0.857082
0.885783
0.910649
0.930169
0.943771
0.95102
0.00197778
0.0677103
0.447299
0.882045
1.04843
1.09923
1.11206
1.10859
1.10015
1.09136
1.08369
1.07757
1.07293
1.06958
1.06727
1.0657
1.06474
1.06441
1.06465
1.06535
1.06634
1.06738
1.06824
1.06853
1.06768
1.06518
1.06041
1.05281
1.04191
1.02754
1.01073
0.992034
0.971146
0.949302
0.925861
0.901096
0.875549
0.849768
0.824298
0.79959
0.776265
0.754546
0.734836
0.717559
0.703234
0.692326
0.685513
0.683435
0.686691
0.69582
0.711037
0.73159
0.756193
0.783631
0.811876
0.839119
0.863136
0.882559
0.896154
0.903278
0.00197285
0.0675511
0.446624
0.881526
1.0482
1.09906
1.11189
1.10836
1.09982
1.0909
1.08307
1.07675
1.0719
1.06831
1.06574
1.06392
1.06265
1.06198
1.06188
1.0623
1.06309
1.0641
1.06506
1.06576
1.06572
1.06457
1.06167
1.05644
1.04831
1.03689
1.02218
1.00549
0.986103
0.965129
0.942551
0.918092
0.892152
0.865278
0.838061
0.811123
0.785112
0.760467
0.737731
0.717314
0.699737
0.685418
0.674725
0.668606
0.667335
0.671588
0.681414
0.696685
0.716404
0.739364
0.763965
0.788135
0.81027
0.828408
0.841177
0.848191
0.00196555
0.0673152
0.445619
0.880756
1.04787
1.09885
1.11171
1.10814
1.09949
1.09044
1.08245
1.07595
1.07087
1.06704
1.06421
1.06212
1.06053
1.05953
1.05907
1.05914
1.05962
1.0604
1.06132
1.06216
1.06267
1.0624
1.06098
1.05788
1.05245
1.04423
1.03279
1.01822
1.00181
0.98209
0.960967
0.937639
0.912183
0.885052
0.856832
0.828235
0.79987
0.772452
0.746508
0.722601
0.701391
0.683267
0.668448
0.657659
0.651472
0.650254
0.654043
0.66316
0.67683
0.694237
0.71373
0.733667
0.752339
0.767994
0.779271
0.78564
0.00195572
0.0669975
0.444263
0.879721
1.04745
1.0986
1.11152
1.10791
1.09917
1.08998
1.08181
1.07509
1.06978
1.0657
1.0626
1.06023
1.05833
1.05697
1.05614
1.05583
1.05597
1.05647
1.05724
1.05814
1.05894
1.05935
1.05911
1.05772
1.05465
1.0494
1.04145
1.03044
1.01622
1.00016
0.980368
0.958964
0.934866
0.908376
0.880047
0.850495
0.820441
0.790546
0.761587
0.734196
0.708969
0.686541
0.667129
0.65137
0.63962
0.632332
0.629574
0.631698
0.638341
0.648698
0.661769
0.676078
0.690031
0.702317
0.711354
0.716454
0.00194314
0.0665902
0.442515
0.878378
1.0469
1.09829
1.1113
1.10767
1.09882
1.08948
1.08111
1.07417
1.0686
1.06423
1.06082
1.05815
1.05596
1.05426
1.05307
1.05238
1.05215
1.05235
1.05291
1.05374
1.05472
1.05564
1.05623
1.05621
1.05517
1.05262
1.04798
1.0407
1.03034
1.01669
1.00091
0.981115
0.959161
0.934194
0.906616
0.877009
0.845946
0.814239
0.782679
0.751997
0.722741
0.695786
0.6714
0.650048
0.632194
0.618167
0.608106
0.602423
0.601121
0.603467
0.608958
0.616489
0.62466
0.632497
0.638362
0.641761
0.00192745
0.0660821
0.440322
0.876682
1.04621
1.09789
1.11102
1.10737
1.09842
1.0889
1.08032
1.07313
1.0673
1.06263
1.05892
1.05594
1.05347
1.05145
1.04993
1.04891
1.04839
1.04832
1.0487
1.04945
1.05049
1.05174
1.05302
1.0541
1.05463
1.05421
1.05239
1.04857
1.04219
1.03269
1.01967
1.00394
0.984106
0.96124
0.93531
0.906486
0.875353
0.842555
0.80906
0.775416
0.742492
0.710909
0.681114
0.653849
0.629506
0.608134
0.590281
0.576001
0.565607
0.559063
0.555958
0.555618
0.557258
0.559637
0.561951
0.56323
0.00190822
0.0654579
0.437609
0.874561
1.04532
1.09738
1.11066
1.10701
1.09793
1.08822
1.0794
1.07195
1.06582
1.06086
1.05685
1.05359
1.05089
1.04862
1.04683
1.04556
1.04482
1.04458
1.04485
1.0456
1.04678
1.04833
1.05012
1.05199
1.05373
1.05499
1.05538
1.05442
1.05154
1.04609
1.0374
1.02487
1.00883
0.988729
0.964599
0.937436
0.907018
0.874097
0.839399
0.803501
0.767135
0.731276
0.696398
0.662837
0.631464
0.602299
0.576006
0.552656
0.532677
0.516447
0.503823
0.494683
0.488827
0.485229
0.483401
0.482503
0.0018848
0.0646969
0.434271
0.871913
1.04419
1.09669
1.11017
1.1065
1.09728
1.08736
1.07829
1.07054
1.06412
1.05886
1.05457
1.05107
1.04821
1.04581
1.0439
1.04252
1.0417
1.04144
1.04174
1.04258
1.04394
1.04577
1.04797
1.05044
1.053
1.05543
1.05744
1.05864
1.05854
1.05654
1.05193
1.04392
1.03162
1.01482
0.994003
0.968166
0.939423
0.907221
0.872034
0.834664
0.795671
0.755892
0.716108
0.676499
0.637934
0.600812
0.565536
0.53263
0.502584
0.476007
0.453419
0.434879
0.420779
0.410782
0.404436
0.401275
0.00185645
0.0637739
0.430176
0.868599
1.04274
1.09576
1.10948
1.1058
1.09643
1.08627
1.07691
1.06888
1.06218
1.05666
1.05215
1.0485
1.04556
1.04322
1.04138
1.04008
1.03938
1.03926
1.03974
1.04079
1.04238
1.04448
1.047
1.04988
1.05298
1.05615
1.05919
1.06181
1.06365
1.06425
1.063
1.05902
1.05132
1.03879
1.02078
0.998766
0.97061
0.939819
0.905085
0.866924
0.826136
0.783331
0.739044
0.693896
0.648353
0.60312
0.558859
0.516338
0.47599
0.438845
0.405829
0.377663
0.354977
0.33809
0.326853
0.321296
0.00182239
0.0626626
0.425179
0.864462
1.04085
1.0945
1.1085
1.10483
1.09529
1.0849
1.07528
1.067
1.06007
1.05439
1.04978
1.04611
1.04326
1.04111
1.03959
1.03862
1.03823
1.03843
1.03921
1.04054
1.04239
1.04473
1.04748
1.05059
1.05396
1.05748
1.06102
1.06441
1.06743
1.06975
1.07088
1.07008
1.06645
1.05865
1.04534
1.0255
1.00122
0.970306
0.936473
0.89867
0.856768
0.811599
0.763586
0.713296
0.661384
0.608733
0.555735
0.503679
0.45335
0.405806
0.362489
0.324506
0.293196
0.269196
0.252996
0.244793
0.00178216
0.0613468
0.419167
0.859343
1.03842
1.09281
1.10715
1.10353
1.09387
1.0833
1.07351
1.06508
1.05809
1.05241
1.0479
1.04442
1.04185
1.04009
1.03904
1.03858
1.03864
1.03924
1.04037
1.04198
1.04405
1.04652
1.04937
1.05251
1.0559
1.05947
1.06313
1.0668
1.07035
1.07357
1.07617
1.07765
1.07716
1.07342
1.06491
1.04989
1.0272
0.999655
0.964999
0.92767
0.885614
0.838961
0.787965
0.733284
0.675836
0.616297
0.555473
0.494566
0.434821
0.377655
0.324497
0.277178
0.237363
0.20628
0.184957
0.17409
0.00173645
0.0598481
0.412195
0.853224
1.03541
1.09063
1.10541
1.10193
1.09226
1.08166
1.07187
1.06351
1.05668
1.05125
1.04708
1.044
1.04188
1.0406
1.04003
1.04009
1.04066
1.04164
1.04305
1.04485
1.04702
1.04951
1.05228
1.05529
1.05849
1.06187
1.06538
1.06896
1.07256
1.07613
1.07952
1.08238
1.08402
1.0834
1.07893
1.06851
1.05005
1.02336
0.991166
0.952554
0.910628
0.863227
0.810278
0.752221
0.690019
0.624563
0.557029
0.488728
0.420774
0.354972
0.293182
0.237326
0.18948
0.151646
0.125301
0.111798
0.00168857
0.0582748
0.404739
0.846475
1.03198
1.0881
1.10343
1.10023
1.09073
1.0803
1.07075
1.06271
1.05627
1.0513
1.04762
1.04506
1.04344
1.04264
1.04253
1.04298
1.0439
1.04515
1.04669
1.04854
1.05064
1.05298
1.05554
1.05828
1.06117
1.06421
1.06742
1.07078
1.0743
1.07791
1.08155
1.08507
1.08799
1.08951
1.08814
1.08164
1.06728
1.04317
1.01165
0.973274
0.930431
0.882811
0.828644
0.768189
0.702466
0.632593
0.559648
0.4852
0.410715
0.338129
0.269193
0.206279
0.15163
0.107757
0.0768497
0.0608197
0.00164606
0.0568749
0.397987
0.840194
1.02872