/*--------------------------------*- C++ -*----------------------------------*\
| =========                 |                                                 |
| \\      /  F ield         | OpenFOAM: The Open Source CFD Toolbox           |
|  \\    /   O peration     | Version:  2212                                  |
|   \\  /    A nd           | Website:  www.openfoam.com                      |
|    \\/     M anipulation  |                                                 |
\*---------------------------------------------------------------------------*/
FoamFile
{
    version     2.0;
    format      ascii;
    arch        "LSB;label=32;scalar=64";
    class       surfaceScalarField;
    location    "1";
    object      phi;
}
// * * * * * * * * * * * * * * * * * * * * * * * * * * * * * * * * * * * * * //

dimensions      [0 3 -1 0 0 0 0];

oriented        oriented;

internalField   nonuniform List<scalar> 
7080
(
-2.63127e-11
-2.64225e-11
-1.2491e-09
1.2228e-09
-7.97645e-09
6.72736e-09
-2.47567e-08
1.67802e-08
-4.96825e-08
2.49258e-08
-7.08234e-08
2.11409e-08
-7.49563e-08
4.13284e-09
-5.79519e-08
-1.70044e-08
-2.26248e-08
-3.53271e-08
2.39757e-08
-4.66004e-08
7.47273e-08
-5.07516e-08
1.23932e-07
-4.92045e-08
1.68212e-07
-4.42803e-08
2.0611e-07
-3.78976e-08
2.37603e-07
-3.14936e-08
2.63446e-07
-2.58432e-08
2.84697e-07
-2.12508e-08
3.02294e-07
-1.75965e-08
3.16931e-07
-1.46375e-08
3.29702e-07
-1.27705e-08
3.4176e-07
-1.2058e-08
3.53194e-07
-1.14346e-08
3.63875e-07
-1.06808e-08
3.73886e-07
-1.00115e-08
3.83331e-07
-9.44497e-09
3.92277e-07
-8.94541e-09
4.00754e-07
-8.47689e-09
4.0875e-07
-7.99661e-09
4.16236e-07
-7.48591e-09
4.23173e-07
-6.93681e-09
4.29502e-07
-6.32913e-09
4.35146e-07
-5.64364e-09
4.40013e-07
-4.86707e-09
4.43954e-07
-3.94138e-09
4.46776e-07
-2.82185e-09
4.483e-07
-1.52392e-09
4.48381e-07
-8.07554e-11
4.46956e-07
1.42556e-09
4.4396e-07
2.99541e-09
4.39392e-07
4.56823e-09
4.333e-07
6.09216e-09
4.25805e-07
7.49504e-09
4.17078e-07
8.72767e-09
4.07301e-07
9.77704e-09
3.96587e-07
1.07136e-08
3.85039e-07
1.15481e-08
3.72803e-07
1.22366e-08
3.59995e-07
1.28081e-08
3.46681e-07
1.3314e-08
3.32967e-07
1.37141e-08
3.18909e-07
1.40574e-08
3.04419e-07
1.44903e-08
2.89207e-07
1.5212e-08
2.72566e-07
1.66417e-08
2.53076e-07
1.94895e-08
2.28067e-07
2.50096e-08
1.9336e-07
3.47067e-08
1.44154e-07
4.92059e-08
7.82291e-08
6.59249e-08
7.82291e-08
1.22336e-09
-1.24978e-09
1.22413e-09
1.22197e-09
-9.09505e-09
1.70465e-08
-3.79295e-08
4.56147e-08
-7.86467e-08
6.5643e-08
-1.04504e-07
4.69984e-08
-8.86405e-08
-1.17308e-08
-2.47014e-08
-8.09435e-08
7.87478e-08
-1.38776e-07
2.05422e-07
-1.73275e-07
3.39451e-07
-1.8478e-07
4.68494e-07
-1.78248e-07
5.85204e-07
-1.6099e-07
6.86449e-07
-1.39142e-07
7.72209e-07
-1.17254e-07
8.44218e-07
-9.78517e-08
9.04914e-07
-8.19472e-08
9.56544e-07
-6.92267e-08
1.00087e-06
-5.89657e-08
1.04029e-06
-5.21831e-08
1.07718e-06
-4.89487e-08
1.11195e-06
-4.62136e-08
1.14452e-06
-4.3247e-08
1.17514e-06
-4.06333e-08
1.20409e-06
-3.8395e-08
1.23154e-06
-3.63913e-08
1.25755e-06
-3.44892e-08
1.28209e-06
-3.25376e-08
1.30507e-06
-3.04618e-08
1.32635e-06
-2.82218e-08
1.34576e-06
-2.57389e-08
1.36305e-06
-2.29349e-08
1.37793e-06
-1.97472e-08
1.38996e-06
-1.597e-08
1.39859e-06
-1.14505e-08
1.4033e-06
-6.23602e-09
1.40368e-06
-4.54615e-10
1.39949e-06
5.61666e-09
1.39053e-06
1.19499e-08
1.37677e-06
1.833e-08
1.35831e-06
2.45521e-08
1.33544e-06
3.03627e-08
1.3086e-06
3.55675e-08
1.27825e-06
4.01286e-08
1.24469e-06
4.42694e-08
1.20822e-06
4.80236e-08
1.16919e-06
5.12665e-08
1.1279e-06
5.40925e-08
1.08454e-06
5.66784e-08
1.03933e-06
5.89199e-08
9.9236e-07
6.10311e-08
9.43265e-07
6.3585e-08
8.91089e-07
6.73878e-08
8.33716e-07
7.40149e-08
7.67098e-07
8.61071e-08
6.83978e-07
1.0813e-07
5.73359e-07
1.45325e-07
4.23039e-07
1.99526e-07
2.27859e-07
2.61105e-07
3.06088e-07
6.72834e-09
-7.9781e-09
1.705e-08
-9.09967e-09
1.70517e-08
1.70448e-08
-2.40307e-09
6.50695e-08
-2.69512e-08
9.01912e-08
-1.82927e-08
3.83398e-08
5.34797e-08
-8.35032e-08
1.86259e-07
-2.13723e-07
3.6233e-07
-3.14847e-07
5.593e-07
-3.70245e-07
7.58408e-07
-3.83888e-07
9.46401e-07
-3.66241e-07
1.11604e-06
-3.3063e-07
1.26473e-06
-2.87829e-07
1.3931e-06
-2.45627e-07
1.50357e-06
-2.08324e-07
1.59924e-06
-1.77611e-07
1.68297e-06
-1.52961e-07
1.75702e-06
-1.33009e-07
1.824e-06
-1.19162e-07
1.88648e-06
-1.11433e-07
1.94505e-06
-1.04784e-07
1.99995e-06
-9.81465e-08
2.05168e-06
-9.23642e-08
2.10065e-06
-8.73612e-08
2.14708e-06
-8.28198e-08
2.19105e-06
-7.84653e-08
2.23251e-06
-7.39955e-08
2.27129e-06
-6.92469e-08
2.30719e-06
-6.41142e-08
2.33987e-06
-5.8424e-08
2.36893e-06
-5.1997e-08
2.39386e-06
-4.46758e-08
2.41394e-06
-3.60465e-08
2.4283e-06
-2.58127e-08
2.43613e-06
-1.4063e-08
2.43674e-06
-1.06352e-09
2.4297e-06
1.26518e-08
2.41467e-06
2.69823e-08
2.39152e-06
4.14797e-08
2.36037e-06
5.57043e-08
2.32158e-06
6.91472e-08
2.27576e-06
8.13872e-08
2.22353e-06
9.23587e-08
2.16534e-06
1.02461e-07
2.10163e-06
1.11736e-07
2.03288e-06
1.20011e-07
1.95952e-06
1.27459e-07
1.88178e-06
1.3442e-07
1.79993e-06
1.40768e-07
1.71393e-06
1.47025e-07
1.62306e-06
1.54463e-07
1.52554e-06
1.64902e-07
1.41785e-06
1.81705e-07
1.29357e-06
2.10386e-07
1.14179e-06
2.59908e-07
9.46656e-07
3.40464e-07
6.91306e-07
4.54876e-07
3.69559e-07
5.82852e-07
6.75647e-07
1.67815e-08
-2.47596e-08
4.56189e-08
-3.79371e-08
6.50777e-08
-2.41411e-09
6.508e-08
6.50673e-08
7.45671e-08
8.07041e-08
1.45332e-07
-3.24254e-08
2.97027e-07
-2.35198e-07
5.07508e-07
-4.24204e-07
7.48393e-07
-5.55733e-07
9.96208e-07
-6.18059e-07
1.2357e-06
-6.23384e-07
1.45789e-06
-5.88429e-07
1.65874e-06
-5.31482e-07
1.83753e-06
-4.66615e-07
1.99565e-06
-4.03748e-07
2.13563e-06
-3.483e-07
2.26041e-06
-3.02389e-07
2.37304e-06
-2.65592e-07
2.47623e-06
-2.36204e-07
2.57125e-06
-2.14176e-07
2.6585e-06
-1.9869e-07
2.73936e-06
-1.85644e-07
2.81512e-06
-1.73904e-07
2.88658e-06
-1.63828e-07
2.95425e-06
-1.55027e-07
3.01837e-06
-1.46942e-07
3.07904e-06
-1.3913e-07
3.13616e-06
-1.3112e-07
3.18955e-06
-1.22637e-07
3.23891e-06
-1.1347e-07
3.28381e-06
-1.03323e-07
3.32369e-06
-9.18753e-08
3.35783e-06
-7.88232e-08
3.3853e-06
-6.3516e-08
3.405e-06
-4.55075e-08
3.41586e-06
-2.49282e-08
3.417e-06
-2.19934e-09
3.40778e-06
2.18714e-08
3.38769e-06
4.70728e-08
3.35651e-06
7.26617e-08
3.3143e-06
9.79144e-08
3.26141e-06
1.22033e-07
3.19848e-06
1.44317e-07
3.12616e-06
1.64685e-07
3.04494e-06
1.8368e-07
2.95539e-06
2.01286e-07
2.85799e-06
2.17404e-07
2.75318e-06
2.32275e-07
2.6412e-06
2.46398e-07
2.52224e-06
2.59726e-07
2.39603e-06
2.73241e-07
2.26134e-06
2.89155e-07
2.11558e-06
3.10656e-07
1.95395e-06
3.43341e-07
1.7682e-06
3.96134e-07
1.54519e-06
4.82921e-07
1.26685e-06
6.18804e-07
9.1521e-07
8.06512e-07
4.85322e-07
1.01274e-06
1.16097e-06
2.49271e-08
-4.96866e-08
6.56473e-08
-7.86573e-08
9.01993e-08
-2.69662e-08
8.07162e-08
7.45505e-08
8.07177e-08
8.07026e-08
1.63348e-07
-1.15055e-07
3.45112e-07
-4.16962e-07
5.88826e-07
-6.67918e-07
8.65467e-07
-8.32374e-07
1.1524e-06
-9.0499e-07
1.43409e-06
-9.05071e-07
1.70049e-06
-8.54837e-07
1.94621e-06
-7.77196e-07
2.16936e-06
-6.89766e-07
2.37048e-06
-6.04868e-07
2.55156e-06
-5.29382e-07
2.71533e-06
-4.66155e-07
2.86511e-06
-4.15375e-07
3.00447e-06
-3.7557e-07
3.13392e-06
-3.43624e-07
3.25187e-06
-3.16637e-07
3.36039e-06
-2.9417e-07
3.46172e-06
-2.75233e-07
3.55698e-06
-2.59084e-07
3.64682e-06
-2.44873e-07
3.73163e-06
-2.31746e-07
3.81156e-06
-2.19059e-07
3.88659e-06
-2.06152e-07
3.95656e-06
-1.9261e-07
4.02116e-06
-1.78065e-07
4.0799e-06
-1.6207e-07
4.13216e-06
-1.44128e-07
4.17706e-06
-1.23727e-07
4.21351e-06
-9.99661e-08
4.24025e-06
-7.22526e-08
4.25607e-06
-4.07481e-08
4.25991e-06
-6.02993e-09
4.25096e-06
3.08201e-08
4.22857e-06
6.94571e-08
4.19243e-06
1.08799e-07
4.14253e-06
1.47815e-07
4.07916e-06
1.85409e-07
4.0029e-06
2.20577e-07
3.91434e-06
2.53246e-07
3.81397e-06
2.84045e-07
3.70245e-06
3.12811e-07
3.58019e-06
3.39664e-07
3.44754e-06
3.64925e-07
3.30473e-06
3.89207e-07
3.1518e-06
4.1266e-07
2.98816e-06
4.36876e-07
2.81212e-06
4.65196e-07
2.62033e-06
5.02446e-07
2.40695e-06
5.56726e-07
2.16254e-06
6.40546e-07
1.87295e-06
7.72502e-07
1.52004e-06
9.71721e-07
1.08723e-06
1.23932e-06
5.72184e-07
1.52779e-06
1.73315e-06
2.1142e-08
-7.08286e-08
4.70018e-08
-1.04517e-07
3.83463e-08
-1.83106e-08
-3.24165e-08
1.45313e-07
-1.15045e-07
1.63331e-07
-1.15045e-07
-1.15055e-07
-3.04447e-09
-5.28963e-07
1.99616e-07
-8.70579e-07
4.71802e-07
-1.10456e-06
7.88865e-07
-1.22205e-06
1.12807e-06
-1.24428e-06
1.47002e-06
-1.19679e-06
1.79996e-06
-1.10713e-06
2.10854e-06
-9.98345e-07
2.39128e-06
-8.87617e-07
2.64755e-06
-7.8565e-07
2.87913e-06
-6.97737e-07
3.08921e-06
-6.25455e-07
3.28141e-06
-5.6777e-07
3.45798e-06
-5.20193e-07
3.61983e-06
-4.78478e-07
3.76892e-06
-4.43266e-07
3.90737e-06
-4.13687e-07
4.0366e-06
-3.88307e-07
4.15758e-06
-3.65854e-07
4.27099e-06
-3.45154e-07
4.37723e-06
-3.25298e-07
4.47647e-06
-3.05395e-07
4.5687e-06
-2.84839e-07
4.65368e-06
-2.63045e-07
4.73098e-06
-2.39377e-07
4.79996e-06
-2.13107e-07
4.8597e-06
-1.8346e-07
4.90899e-06
-1.49262e-07
4.94651e-06
-1.09768e-07
4.97091e-06
-6.51483e-08
4.98101e-06
-1.61301e-08
4.97589e-06
3.59408e-08
4.95478e-06
9.0562e-08
4.9173e-06
1.46284e-07
4.86336e-06
2.01755e-07
4.79318e-06
2.55587e-07
4.70729e-06
3.06462e-07
4.60619e-06
3.54348e-07
4.49033e-06
3.99901e-07
4.36042e-06
4.42724e-07
4.2168e-06
4.83285e-07
4.0597e-06
5.22021e-07
3.8893e-06
5.59607e-07
3.70546e-06
5.96499e-07
3.50731e-06
6.35025e-07
3.29271e-06
6.79798e-07
3.05768e-06
7.37476e-07
2.79562e-06
8.18793e-07
2.49637e-06
9.39788e-07
2.14564e-06
1.12324e-06
1.72627e-06
1.39109e-06
1.22422e-06
1.74136e-06
6.40084e-07
2.11192e-06
2.37324e-06
4.13345e-09
-7.49621e-08
-1.1729e-08
-8.86547e-08
-8.35001e-08
5.34606e-08
-2.35194e-07
2.97007e-07
-4.16959e-07
3.45096e-07
-5.28961e-07
-3.05365e-09
-5.28962e-07
-5.28962e-07
-4.13705e-07
-9.85835e-07
-1.96601e-07
-1.32166e-06
1.04382e-07
-1.52304e-06
4.64916e-07
-1.60481e-06
8.60497e-07
-1.59237e-06
1.26821e-06
-1.51484e-06
1.66949e-06
-1.39962e-06
2.05117e-06
-1.2693e-06
2.40578e-06
-1.14026e-06
2.73056e-06
-1.02251e-06
3.02595e-06
-9.20849e-07
3.29412e-06
-8.35937e-07
3.53834e-06
-7.64415e-07
3.76212e-06
-7.02255e-07
3.96789e-06
-6.4904e-07
4.15786e-06
-6.03654e-07
4.3339e-06
-5.64347e-07
4.49751e-06
-5.2946e-07
4.64982e-06
-4.9747e-07
4.79165e-06
-4.67122e-07
4.92349e-06
-4.37234e-07
5.04558e-06
-4.06936e-07
5.15789e-06
-3.75355e-07
5.26013e-06
-3.41615e-07
5.35171e-06
-3.0469e-07
5.43174e-06
-2.63483e-07
5.49899e-06
-2.16513e-07
5.55208e-06
-1.62857e-07
5.58959e-06
-1.02666e-07
5.61026e-06
-3.68006e-08
5.61306e-06
3.31446e-08
5.59714e-06
1.06482e-07
5.56205e-06
1.8137e-07
5.50767e-06
2.56137e-07
5.43415e-06
3.29106e-07
5.34197e-06
3.98641e-07
5.23154e-06
4.64782e-07
5.10327e-06
5.28167e-07
4.9579e-06
5.88099e-07
4.79571e-06
6.45477e-07
4.61681e-06
7.00921e-07
4.42129e-06
7.55127e-07
4.20885e-06
8.08931e-07
3.97837e-06
8.65509e-07
3.72732e-06
9.30845e-07
3.45123e-06
1.01357e-06
3.14295e-06
1.12707e-06
2.79199e-06
1.29075e-06
2.38435e-06
1.53088e-06
1.9044e-06
1.87104e-06
1.34093e-06
2.30483e-06
6.97293e-07
2.75556e-06
3.07053e-06
-1.70044e-08
-5.79577e-08
-8.09437e-08
-2.47154e-08
-2.13724e-07
1.86241e-07
-4.24207e-07
5.0749e-07
-6.67923e-07
5.88812e-07
-8.70586e-07
1.9961e-07
-9.85846e-07
-4.13703e-07
-9.85847e-07
-9.85834e-07
-8.67479e-07
-1.44003e-06
-6.39442e-07
-1.75107e-06
-3.19479e-07
-1.92477e-06
7.04154e-08
-1.98227e-06
5.06035e-07
-1.95046e-06
9.63891e-07
-1.85747e-06
1.42353e-06
-1.72894e-06
1.8693e-06
-1.58603e-06
2.29094e-06
-1.44415e-06
2.68303e-06
-1.31293e-06
3.04387e-06
-1.19678e-06
3.37469e-06
-1.09524e-06
3.67828e-06
-1.00584e-06
3.95731e-06
-9.28066e-07
4.21426e-06
-8.60602e-07
4.45144e-06
-8.01528e-07
4.67084e-06
-7.48869e-07
4.87414e-06
-7.00763e-07
5.06259e-06
-6.55572e-07
5.23712e-06
-6.11767e-07
5.39833e-06
-5.68146e-07
5.54645e-06
-5.23479e-07
5.68142e-06
-4.76586e-07
5.80281e-06
-4.26079e-07
5.9098e-06
-3.70464e-07
6.0012e-06
-3.07914e-07
6.07562e-06
-2.37283e-07
6.13162e-06
-1.58668e-07
6.16786e-06
-7.30339e-08
6.18321e-06
1.77902e-08
6.1768e-06
1.12898e-07
6.14812e-06
2.10044e-07
6.09703e-06
3.07233e-07
6.02363e-06
4.02501e-07
5.92837e-06
4.93904e-07
5.81159e-06
5.8156e-07
5.67368e-06
6.66072e-07
5.51539e-06
7.46393e-07
5.33697e-06
8.23899e-07
5.13841e-06
8.99477e-07
4.91972e-06
9.73816e-07
4.68046e-06
1.04819e-06
4.41928e-06
1.12669e-06
4.13336e-06
1.21676e-06
3.81786e-06
1.32908e-06
3.46527e-06
1.47965e-06
3.06504e-06
1.69098e-06
2.60369e-06
1.99223e-06
2.06727e-06
2.40746e-06
1.44722e-06
2.92488e-06
7.49268e-07
3.45351e-06
3.8198e-06
-3.53276e-08
-2.26301e-08
-1.38778e-07
7.87354e-08
-3.14852e-07
3.62315e-07
-5.55742e-07
7.4838e-07
-8.32388e-07
8.65458e-07
-1.10458e-06
4.718e-07
-1.32169e-06
-1.96595e-07
-1.44006e-06
-8.67462e-07
-1.44006e-06
-1.44003e-06
-1.31848e-06
-1.87265e-06
-1.08368e-06
-2.15958e-06
-7.51136e-07
-2.31481e-06
-3.41279e-07
-2.36032e-06
1.22947e-07
-2.3217e-06
6.18471e-07
-2.22447e-06
1.12438e-06
-2.09194e-06
1.62367e-06
-1.94344e-06
2.10403e-06
-1.7933e-06
2.55783e-06
-1.65057e-06
2.98173e-06
-1.51914e-06
3.37554e-06
-1.39966e-06
3.74024e-06
-1.29276e-06
4.07746e-06
-1.19783e-06
4.38923e-06
-1.11329e-06
4.67758e-06
-1.03722e-06
4.94442e-06
-9.67608e-07
5.19137e-06
-9.02518e-07
5.41972e-06
-8.40115e-07
5.63041e-06
-7.78835e-07
5.82399e-06
-7.17057e-07
6.00064e-06
-6.53246e-07
6.16016e-06
-5.85591e-07
6.30183e-06
-5.12138e-07
6.42457e-06
-4.3065e-07
6.52701e-06
-3.39722e-07
6.60768e-06
-2.39344e-07
6.6652e-06
-1.30555e-07
6.69839e-06
-1.53977e-08
6.70633e-06
1.04962e-07
6.68851e-06
2.27865e-07
6.64474e-06
3.50997e-07
6.57515e-06
4.72095e-07
6.48013e-06
5.88924e-07
6.36002e-06
7.01674e-07
6.21519e-06
8.10902e-07
6.04638e-06
9.15195e-07
5.85387e-06
1.01641e-06
5.63756e-06
1.11579e-06
5.39735e-06
1.21403e-06
5.1327e-06
1.31284e-06
4.84209e-06
1.4173e-06
4.52252e-06
1.53634e-06
4.16886e-06
1.68273e-06
3.77347e-06
1.87504e-06
3.32584e-06
2.13861e-06
2.81319e-06
2.50489e-06
2.22308e-06
2.99756e-06
1.54927e-06
3.5987e-06
7.99368e-07
4.20341e-06
4.61917e-06
-4.66014e-08
2.39713e-08
-1.73278e-07
2.05412e-07
-3.70253e-07
5.59289e-07
-6.18074e-07
9.96201e-07
-9.05013e-07
1.1524e-06
-1.22208e-06
7.8887e-07
-1.52307e-06
1.04393e-07
-1.75111e-06
-6.39422e-07
-1.87269e-06
-1.31845e-06
-1.87269e-06
-1.87265e-06
-1.74954e-06
-2.28272e-06
-1.51081e-06
-2.55354e-06
-1.17062e-06
-2.70051e-06
-7.47668e-07
-2.74465e-06
-2.63363e-07
-2.70877e-06
2.6029e-07
-2.61559e-06
8.02704e-07
-2.48586e-06
1.34634e-06
-2.33693e-06
1.87769e-06
-2.18192e-06
2.38775e-06
-2.0292e-06
2.8715e-06
-1.88341e-06
3.32642e-06
-1.74768e-06
3.75176e-06
-1.62316e-06
4.14799e-06
-1.50952e-06
4.5163e-06
-1.40553e-06
4.85818e-06
-1.30949e-06
5.17514e-06
-1.21948e-06
5.46856e-06
-1.13354e-06
5.73957e-06
-1.04984e-06
5.98894e-06
-9.66422e-07
6.21706e-06
-8.81367e-07
6.4239e-06
-7.92429e-07
6.6089e-06
-6.97138e-07
6.77105e-06
-5.92802e-07
6.90904e-06
-4.77714e-07
7.0214e-06
-3.51705e-07
7.1067e-06
-2.15854e-07
7.1637e-06
-7.23985e-08
7.19147e-06
7.71892e-08
7.1895e-06
2.29838e-07
7.15759e-06
3.82905e-07
7.09587e-06
5.33816e-07
7.00473e-06
6.80068e-07
6.88451e-06
8.21889e-07
6.73562e-06
9.59793e-07
6.5588e-06
1.09202e-06
6.35434e-06
1.22087e-06
6.12212e-06
1.34801e-06
5.86196e-06
1.47419e-06
5.57323e-06
1.60157e-06
5.25432e-06
1.73621e-06
4.90211e-06
1.88855e-06
4.51136e-06
2.07348e-06
4.07439e-06
2.31202e-06
3.58087e-06
2.63213e-06
3.01869e-06
3.06706e-06
2.37676e-06
3.6395e-06
1.65064e-06
4.32482e-06
8.49484e-07
5.00457e-06
5.46865e-06
-5.07533e-08
7.47247e-08
-1.84786e-07
3.39445e-07
-3.83902e-07
7.58405e-07
-6.23405e-07
1.2357e-06
-9.051e-07
1.43409e-06
-1.24431e-06
1.12808e-06
-1.60485e-06
4.64934e-07
-1.92482e-06
-3.19456e-07
-2.15962e-06
-1.08365e-06
-2.28277e-06
-1.74951e-06
-2.28277e-06
-2.28273e-06
-2.1589e-06
-2.6774e-06
-1.9182e-06
-2.94122e-06
-1.57352e-06
-3.08933e-06
-1.14195e-06
-3.14034e-06
-6.43229e-07
-3.11431e-06
-9.80102e-08
-3.03108e-06
4.73917e-07
-2.90886e-06
1.05511e-06
-2.76311e-06
1.63162e-06
-2.60571e-06
2.19329e-06
-2.44508e-06
2.73306e-06
-2.28746e-06
3.24648e-06
-2.13658e-06
3.73116e-06
-1.9942e-06
4.18625e-06
-1.86062e-06
4.61186e-06
-1.7351e-06
5.00865e-06
-1.61627e-06
5.37755e-06
-1.50244e-06
5.71944e-06
-1.39174e-06
6.03507e-06
-1.28205e-06
6.32486e-06
-1.17116e-06
6.58886e-06
-1.05643e-06
6.82657e-06
-9.34843e-07
7.03702e-06
-8.0326e-07
7.21895e-06
-6.59636e-07
7.37084e-06
-5.03597e-07
7.49123e-06
-3.36242e-07
7.57881e-06
-1.5998e-07
7.63264e-06
2.3355e-08
7.6522e-06
2.10276e-07
7.6373e-06
3.97807e-07
7.58808e-06
5.83037e-07
7.50493e-06
7.63218e-07
7.38826e-06
9.38564e-07
7.2385e-06
1.10955e-06
7.05642e-06
1.2741e-06
6.84236e-06
1.43492e-06
6.59623e-06
1.59415e-06
6.31777e-06
1.75264e-06
6.00633e-06
1.91301e-06
5.66026e-06
2.08227e-06
5.27643e-06
2.27238e-06
4.84961e-06
2.5003e-06
4.37218e-06
2.78945e-06
3.83408e-06
3.17023e-06
3.22377e-06
3.67737e-06
2.53122e-06
4.33205e-06
1.7534e-06
5.10264e-06
9.00663e-07
5.85731e-06
6.36932e-06
-4.92058e-08
1.2393e-07
-1.78253e-07
4.68493e-07
-3.66253e-07
9.46404e-07
-5.88451e-07
1.4579e-06
-8.5487e-07
1.70051e-06
-1.19683e-06
1.47004e-06
-1.59242e-06
8.60519e-07
-1.98232e-06
7.04407e-08
-2.31486e-06
-7.51107e-07
-2.55358e-06
-1.51078e-06
-2.67745e-06
-2.15886e-06
-2.67744e-06
-2.67741e-06
-2.55339e-06
-3.06527e-06
-2.31179e-06
-3.33093e-06
-1.96433e-06
-3.4878e-06
-1.52658e-06
-3.55206e-06
-1.01666e-06
-3.541e-06
-4.53736e-07
-3.47178e-06
1.4346e-07
-3.36031e-06
7.58022e-07
-3.22027e-06
1.37575e-06
-3.06281e-06
1.98524e-06
-2.89694e-06
2.57784e-06
-2.72918e-06
3.14748e-06
-2.56384e-06
3.69022e-06
-2.40336e-06
4.20377e-06
-2.24865e-06
4.68702e-06
-2.09952e-06
5.13965e-06
-1.95507e-06
5.56174e-06
-1.81382e-06
5.9535e-06
-1.67382e-06
6.31508e-06
-1.53274e-06
6.64631e-06
-1.38766e-06
6.94658e-06
-1.23512e-06
7.21488e-06
-1.07156e-06
7.44986e-06
-8.94614e-07
7.64993e-06
-7.03671e-07
7.81356e-06
-4.99862e-07
7.93933e-06
-2.85754e-07
8.02628e-06
-6.35933e-08
8.07385e-06
1.62703e-07
8.08185e-06
3.89803e-07
8.05046e-06
6.14435e-07
7.98005e-06
8.33621e-07
7.87112e-06
1.04749e-06
7.72419e-06
1.25648e-06
7.54003e-06
1.45826e-06
7.31909e-06
1.65587e-06
7.06133e-06
1.8519e-06
6.76651e-06
2.04747e-06
6.43394e-06
2.24558e-06
6.06205e-06
2.45417e-06
5.64777e-06
2.68666e-06
5.186e-06
2.96208e-06
4.66928e-06
3.30617e-06
4.08782e-06
3.75169e-06
3.43053e-06
4.33466e-06
2.68813e-06
5.07444e-06
1.85864e-06
5.93212e-06
9.53429e-07
6.76252e-06
7.32274e-06
-4.42832e-08
1.68214e-07
-1.61e-07
5.8521e-07
-3.30649e-07
1.11605e-06
-5.31509e-07
1.65876e-06
-7.77232e-07
1.94623e-06
-1.10717e-06
1.79999e-06
-1.51489e-06
1.26824e-06
-1.95051e-06
5.06063e-07
-2.36037e-06
-3.41251e-07
-2.70056e-06
-1.17059e-06
-2.94126e-06
-1.91817e-06
-3.06531e-06
-2.55336e-06
-3.0653e-06
-3.06527e-06
-2.94131e-06
-3.45492e-06
-2.69925e-06
-3.72986e-06
-2.34969e-06
-3.90161e-06
-1.90679e-06
-3.9839e-06
-1.38707e-06
-3.9915e-06
-8.08247e-07
-3.93913e-06
-1.87857e-07
-3.84066e-06
4.57759e-07
-3.70843e-06
1.11406e-06
-3.55324e-06
1.76876e-06
-3.38388e-06
2.41201e-06
-3.20709e-06
3.03629e-06
-3.02763e-06
3.63615e-06
-2.84851e-06
4.20788e-06
-2.67125e-06
4.74908e-06
-2.49627e-06
5.25826e-06
-2.32299e-06
5.73449e-06
-2.15005e-06
6.17708e-06
-1.97533e-06
6.58528e-06
-1.79586e-06
6.95807e-06
-1.60791e-06
7.29412e-06
-1.4076e-06
7.59184e-06
-1.19234e-06
7.84946e-06
-9.61288e-07
8.06525e-06
-7.15654e-07
8.23768e-06
-4.5818e-07
8.36567e-06
-1.91583e-07
8.44861e-06
7.97632e-08
8.48627e-06
3.5214e-07
8.47883e-06
6.21876e-07
8.42669e-06
8.85762e-07
8.33041e-06
1.14377e-06
8.19062e-06
1.39627e-06
8.00815e-06
1.64074e-06
7.78354e-06
1.88047e-06
7.51691e-06
2.11853e-06
7.20806e-06
2.35632e-06
6.85632e-06
2.59732e-06
6.46023e-06
2.85025e-06
6.01696e-06
3.12993e-06
5.52159e-06
3.45744e-06
4.96691e-06
3.86085e-06
4.34332e-06
4.37528e-06
3.64004e-06
5.03794e-06
2.84828e-06
5.86621e-06
1.96682e-06
6.81358e-06
1.00796e-06
7.72138e-06
8.33071e-06
-3.79017e-08
2.06115e-07
-1.39156e-07
6.86464e-07
-2.87854e-07
1.26475e-06
-4.66648e-07
1.83756e-06
-6.89803e-07
2.16939e-06
-9.98386e-07
2.10857e-06
-1.39966e-06
1.66952e-06
-1.85752e-06
9.6392e-07
-2.32175e-06
1.22975e-07
-2.74469e-06
-7.47641e-07
-3.08937e-06
-1.57349e-06
-3.33096e-06
-2.31176e-06
-3.45495e-06
-2.94129e-06
-3.45494e-06
-3.45493e-06
-3.331e-06
-3.8538e-06
-3.08841e-06
-4.14421e-06
-2.73666e-06
-4.33565e-06
-2.28854e-06
-4.43961e-06
-1.75913e-06
-4.46854e-06
-1.16471e-06
-4.43508e-06
-5.21757e-07
-4.35138e-06
1.53797e-07
-4.2288e-06
8.47289e-07
-4.07738e-06
1.54582e-06
-3.90562e-06
2.2385e-06
-3.72032e-06
2.91655e-06
-3.52656e-06
3.57313e-06
-3.32783e-06
4.2031e-06
-3.12623e-06
4.80265e-06
-2.92255e-06
5.36904e-06
-2.71643e-06
5.90009e-06
-2.50638e-06
6.39392e-06
-2.28969e-06
6.84865e-06
-2.06264e-06
7.26227e-06
-1.82122e-06
7.63269e-06
-1.56276e-06
7.95771e-06
-1.28631e-06
8.23529e-06
-9.93235e-07
8.46363e-06
-6.86521e-07
8.64147e-06
-3.69416e-07
8.76804e-06
-4.6813e-08
8.84304e-06
2.77137e-07
8.86661e-06
5.98314e-07
8.83912e-06
9.13246e-07
8.76123e-06
1.22167e-06
8.63369e-06
1.52381e-06
8.45739e-06
1.81703e-06
8.233e-06
2.10486e-06
7.96083e-06
2.3907e-06
7.64081e-06
2.67635e-06
7.27234e-06
2.96578e-06
6.85418e-06
3.26842e-06
6.38376e-06
3.60035e-06
5.85649e-06
3.98471e-06
5.26539e-06
4.45195e-06
4.60101e-06
5.03967e-06
3.85267e-06
5.78628e-06
3.01185e-06
6.70703e-06
2.07793e-06
7.74749e-06
1.0642e-06
8.73511e-06
9.39491e-06
-3.14971e-08
2.37612e-07
-1.17266e-07
7.72232e-07
-2.45649e-07
1.39313e-06
-4.03778e-07
1.99569e-06
-6.04902e-07
2.37051e-06
-8.87653e-07
2.39132e-06
-1.26934e-06
2.0512e-06
-1.72898e-06
1.42356e-06
-2.2245e-06
6.18498e-07
-2.7088e-06
-2.63338e-07
-3.14037e-06
-1.14192e-06
-3.48783e-06
-1.96431e-06
-3.72988e-06
-2.69923e-06
-3.85382e-06
-3.33099e-06
-3.85381e-06
-3.85381e-06
-3.72974e-06
-4.26829e-06
-3.48618e-06
-4.57921e-06
-3.1316e-06
-4.79419e-06
-2.67751e-06
-4.92263e-06
-2.13763e-06
-4.97496e-06
-1.527e-06
-4.96202e-06
-8.61249e-07
-4.89455e-06
-1.55855e-07
-4.78277e-06
5.745e-07
-4.63597e-06
1.31644e-06
-4.46226e-06
2.05823e-06
-4.26835e-06
2.78993e-06
-4.05954e-06
3.50336e-06
-3.83966e-06
4.19194e-06
-3.61113e-06
4.85042e-06
-3.37492e-06
5.47454e-06
-3.13049e-06
6.06064e-06
-2.8758e-06
6.60545e-06
-2.60744e-06
7.10579e-06
-2.32157e-06
7.55866e-06
-2.01563e-06
7.96112e-06
-1.68877e-06
8.31056e-06
-1.34268e-06
8.60475e-06
-9.80707e-07
8.84205e-06
-6.06716e-07
9.02144e-06
-2.26207e-07
9.14243e-06
1.56153e-07
9.20503e-06
5.35715e-07
9.20957e-06
9.087e-07
9.15674e-06
1.27449e-06
9.04745e-06
1.6331e-06
8.88268e-06
1.98181e-06
8.66318e-06
2.32436e-06
8.38954e-06
2.66434e-06
8.0619e-06
3.00398e-06
7.6798e-06
3.34789e-06
7.24224e-06
3.70598e-06
6.74704e-06
4.09554e-06
6.18998e-06
4.54177e-06
5.5643e-06
5.07763e-06
4.86058e-06
5.74338e-06
4.06811e-06
6.57875e-06
3.17845e-06
7.59669e-06
2.19158e-06
8.73436e-06
1.12188e-06
9.80482e-06
1.05168e-05
-2.58449e-08
2.63457e-07
-9.7858e-08
8.44246e-07
-2.08337e-07
1.50361e-06
-3.4832e-07
2.13567e-06
-5.29406e-07
2.5516e-06
-7.85676e-07
2.64759e-06
-1.14029e-06
2.40581e-06
-1.58606e-06
1.86933e-06
-2.09197e-06
1.1244e-06
-2.61562e-06
2.60312e-07
-3.11433e-06
-6.4321e-07
-3.55207e-06
-1.52657e-06
-3.90163e-06
-2.34968e-06
-4.14422e-06
-3.0884e-06
-4.26828e-06
-3.72974e-06
-4.26828e-06
-4.26829e-06
-4.14374e-06
-4.70375e-06
-3.89854e-06
-5.0394e-06
-3.54012e-06
-5.28104e-06
-3.07884e-06
-5.43624e-06
-2.5272e-06
-5.51365e-06
-1.89923e-06
-5.52252e-06
-1.20976e-06
-5.47223e-06
-4.73854e-07
-5.37188e-06
2.93851e-07
-5.22996e-06
1.0796e-06
-5.0541e-06
1.87091e-06
-4.85085e-06
2.65676e-06
-4.62551e-06
3.42765e-06
-4.38202e-06
4.1755e-06
-4.12277e-06
4.89342e-06
-3.84841e-06
5.57544e-06
-3.55782e-06
6.21627e-06
-3.24827e-06
6.81102e-06
-2.91632e-06
7.35525e-06
-2.55987e-06
7.84488e-06
-2.17839e-06
8.27636e-06
-1.77416e-06
8.64675e-06
-1.3511e-06
8.95381e-06
-9.13773e-07
9.19604e-06
-4.6844e-07
9.37261e-06
-2.04166e-08
9.4833e-06
4.25027e-07
9.52829e-06
8.63707e-07
9.50827e-06
1.29452e-06
9.42426e-06
1.71711e-06
9.27734e-06
2.12872e-06
9.06836e-06
2.53334e-06
8.79821e-06
2.93449e-06
8.46732e-06
3.33487e-06
8.07542e-06
3.73979e-06
7.62185e-06
4.15955e-06
7.10486e-06
4.61253e-06
6.52061e-06
5.12603e-06
5.86252e-06
5.73571e-06
5.12112e-06
6.48479e-06
4.28549e-06
7.41438e-06
3.34725e-06
8.53493e-06
2.30704e-06
9.77457e-06
1.18056e-06
1.09313e-05
1.16973e-05
-2.12508e-08
2.84708e-07
-8.19484e-08
9.04943e-07
-1.77615e-07
1.59928e-06
-3.024e-07
2.26045e-06
-4.66173e-07
2.71537e-06
-6.97759e-07
2.87917e-06
-1.02254e-06
2.73059e-06
-1.44418e-06
2.29097e-06
-1.94347e-06
1.62369e-06
-2.48588e-06
8.02725e-07
-3.0311e-06
-9.79943e-08
-3.54101e-06
-1.01665e-06
-3.98391e-06
-1.90678e-06
-4.33565e-06
-2.73666e-06
-4.5792e-06
-3.48619e-06
-4.70372e-06
-4.14377e-06
-4.70372e-06
-4.70376e-06
-4.5783e-06
-5.16481e-06
-4.33061e-06
-5.52874e-06
-3.96714e-06
-5.79971e-06
-3.49718e-06
-5.98361e-06
-2.93223e-06
-6.08748e-06
-2.28538e-06
-6.11908e-06
-1.5708e-06
-6.08646e-06
-8.03127e-07
-5.99764e-06
3.05642e-09
-5.86029e-06
8.33665e-07
-5.68145e-06
1.6755e-06
-5.46735e-06
2.51647e-06
-5.22299e-06
3.3457e-06
-4.95199e-06
4.15346e-06
-4.65618e-06
4.93108e-06
-4.33544e-06
5.67069e-06
-3.98788e-06
6.36516e-06
-3.61079e-06
7.00806e-06
-3.20276e-06
7.59361e-06
-2.76395e-06
8.11692e-06
-2.29746e-06
8.57393e-06
-1.80811e-06
8.96145e-06
-1.30129e-06
9.27723e-06
-7.84217e-07
9.51988e-06
-2.63062e-07
9.68871e-06
2.56193e-07
9.78366e-06
7.68757e-07
9.80532e-06
1.27286e-06
9.75478e-06
1.76765e-06
9.63317e-06
2.25033e-06
9.44142e-06
2.72509e-06
9.18075e-06
3.19516e-06
8.85192e-06
3.66369e-06
8.45498e-06
4.13673e-06
7.98962e-06
4.62491e-06
7.45452e-06
5.14763e-06
6.84621e-06
5.73434e-06
6.15828e-06
6.42364e-06
5.38105e-06
7.26202e-06
4.50336e-06
8.29206e-06
3.51692e-06
9.52137e-06
2.42327e-06
1.08682e-05
1.23967e-06
1.21149e-05
1.2937e-05
-1.76006e-08
3.02309e-07
-6.92392e-08
9.56582e-07
-1.52982e-07
1.68302e-06
-2.65616e-07
2.37309e-06
-4.15395e-07
2.86515e-06
-6.25473e-07
3.08925e-06
-9.20864e-07
3.02598e-06
-1.31294e-06
2.68305e-06
-1.79331e-06
2.10406e-06
-2.33694e-06
1.34636e-06
-2.90887e-06
4.73931e-07
-3.47179e-06
-4.53729e-07
-3.9915e-06
-1.38708e-06
-4.4396e-06
-2.28856e-06
-4.79417e-06
-3.13162e-06
-5.03936e-06
-3.89858e-06
-5.16475e-06
-4.57836e-06
-5.16474e-06
-5.16482e-06
-5.03798e-06
-5.6555e-06
-4.78685e-06
-6.05084e-06
-4.417e-06
-6.35346e-06
-3.93678e-06
-6.5677e-06
-3.35677e-06
-6.69909e-06
-2.68927e-06
-6.75396e-06
-1.94781e-06
-6.73909e-06
-1.14667e-06
-6.66143e-06
-3.00403e-07
-6.52772e-06
5.76579e-07
-6.34433e-06
1.47033e-06
-6.11674e-06
2.36762e-06
-5.84928e-06
3.25608e-06
-5.54464e-06
4.12422e-06
-5.20357e-06
4.96132e-06
-4.82498e-06
5.75749e-06
-4.40696e-06
6.5038e-06
-3.94908e-06
7.19227e-06
-3.45242e-06
7.81612e-06
-2.92131e-06
8.36969e-06
-2.36169e-06
8.8484e-06
-1.78e-06
9.24884e-06
-1.18466e-06
9.56876e-06
-5.82981e-07
9.80674e-06
1.82113e-08
9.96226e-06
6.13245e-07
1.00357e-05
1.19945e-06
1.0028e-05
1.77534e-06
9.94036e-06
2.33796e-06
9.77378e-06
2.89167e-06
9.52975e-06
3.43919e-06
9.20943e-06
3.98402e-06
8.81323e-06
4.53294e-06
8.34123e-06
5.0969e-06
7.7925e-06
5.69636e-06
7.1639e-06
6.36293e-06
6.44909e-06
7.13846e-06
5.63814e-06
8.07296e-06
4.71969e-06
9.21051e-06
3.68569e-06
1.05554e-05
2.53891e-06
1.2015e-05
1.29847e-06
1.33553e-05
1.42355e-05
-1.46375e-08
3.16946e-07
-5.89661e-08
1.00091e-06
-1.33011e-07
1.75707e-06
-2.36208e-07
2.47629e-06
-3.75578e-07
3.00452e-06
-5.67781e-07
3.28145e-06
-8.35947e-07
3.29415e-06
-1.19679e-06
3.0439e-06
-1.65058e-06
2.55785e-06
-2.18193e-06
1.87771e-06
-2.76311e-06
1.05512e-06
-3.3603e-06
1.43462e-07
-3.93912e-06
-8.08256e-07
-4.46852e-06
-1.75916e-06
-4.92259e-06
-2.67755e-06
-5.28099e-06
-3.54018e-06
-5.52867e-06
-4.33069e-06
-5.65541e-06
-5.03808e-06
-5.6554e-06
-5.65552e-06
-5.52678e-06
-6.17946e-06
-5.27126e-06
-6.60899e-06
-4.89366e-06
-6.9453e-06
-4.40151e-06
-7.19124e-06
-3.80458e-06
-7.35089e-06
-3.11445e-06
-7.42923e-06
-2.3441e-06
-7.43177e-06
-1.50751e-06
-7.36432e-06
-6.19229e-07
-7.23261e-06
3.05901e-07
-7.04187e-06
1.25311e-06
-6.79649e-06
2.20793e-06
-6.49946e-06
3.15636e-06
-6.152e-06
4.08484e-06
-5.75347e-06
4.98049e-06
-5.3026e-06
5.83146e-06
-4.80005e-06
6.62716e-06
-4.24812e-06
7.35833e-06
-3.65248e-06
8.0172e-06
-3.02056e-06
8.59726e-06
-2.36006e-06
9.09349e-06
-1.6809e-06
9.50231e-06
-9.918e-07
9.82123e-06
-3.00707e-07
1.00489e-05
3.85544e-07
1.01853e-05
1.06305e-06
1.02312e-05
1.72946e-06
1.01875e-05
2.38162e-06
1.00554e-05
3.0238e-06
9.83653e-06
3.65807e-06
9.53241e-06
4.28814e-06
9.1439e-06
4.92145e-06
8.67146e-06
5.56934e-06
8.11447e-06
6.25336e-06
7.47001e-06
7.00739e-06
6.73172e-06
7.87675e-06
5.88947e-06
8.91521e-06
4.93182e-06
1.01682e-05
3.85131e-06
1.16359e-05
2.65231e-06
1.3214e-05
1.35605e-06
1.46516e-05
1.55915e-05
-1.27652e-08
3.29711e-07
-5.2167e-08
1.04031e-06
-1.19136e-07
1.82404e-06
-2.14145e-07
2.5713e-06
-3.43595e-07
3.13397e-06
-5.20169e-07
3.45803e-06
-7.64398e-07
3.53838e-06
-1.09523e-06
3.37473e-06
-1.51914e-06
2.98176e-06
-2.0292e-06
2.38777e-06
-2.60571e-06
1.63163e-06
-3.22027e-06
7.58021e-07
-3.84065e-06
-1.87874e-07
-4.43506e-06
-1.16475e-06
-4.97493e-06
-2.13769e-06
-5.43619e-06
-3.07892e-06
-5.79964e-06
-3.96724e-06
-6.05073e-06
-4.78698e-06
-6.17932e-06
-5.52692e-06
-6.17931e-06
-6.17947e-06
-6.04833e-06
-6.73996e-06
-5.78744e-06
-7.20619e-06
-5.40073e-06
-7.57795e-06
-4.89497e-06
-7.85666e-06
-4.27918e-06
-8.04501e-06
-3.56432e-06
-8.14663e-06
-2.7629e-06
-8.16574e-06
-1.88868e-06
-8.10683e-06
-9.56337e-07
-7.97421e-06
1.87941e-08
-7.77163e-06
1.02101e-06
-7.50167e-06
2.03442e-06
-7.16541e-06
3.043e-06
-6.76205e-06
4.03096e-06
-6.29056e-06
4.98347e-06
-5.75256e-06
5.887e-06
-5.15164e-06
6.72941e-06
-4.49489e-06
7.50025e-06
-3.7914e-06
8.19056e-06
-3.05037e-06
8.79312e-06
-2.28346e-06
9.30247e-06
-1.50115e-06
9.7146e-06
-7.12836e-07
1.0027e-05
7.31707e-08
1.02387e-05
8.51292e-07
1.03501e-05
1.61807e-06
1.03618e-05
2.36992e-06
1.02748e-05
3.11079e-06
1.0091e-05
3.84187e-06
9.81217e-06
4.56699e-06
9.43957e-06
5.29405e-06
8.97402e-06
6.03489e-06
8.41508e-06
6.81229e-06
7.75994e-06