/*--------------------------------*- C++ -*----------------------------------*\
| =========                 |                                                 |
| \\      /  F ield         | OpenFOAM: The Open Source CFD Toolbox           |
|  \\    /   O peration     | Version:  2212                                  |
|   \\  /    A nd           | Website:  www.openfoam.com                      |
|    \\/     M anipulation  |                                                 |
\*---------------------------------------------------------------------------*/
FoamFile
{
    version     2.0;
    format      ascii;
    arch        "LSB;label=32;scalar=64";
    class       volScalarField;
    location    "1";
    object      Q_3D;
}
// * * * * * * * * * * * * * * * * * * * * * * * * * * * * * * * * * * * * * //

dimensions      [0 0 0 0 0 0 0];

internalField   nonuniform List<scalar> 
3600
(
1.49512e-11
1.07161e-09
1.08113e-08
4.51083e-08
9.7013e-08
9.62761e-08
3.44797e-08
2.79843e-07
5.62311e-07
7.92096e-07
9.20532e-07
9.45305e-07
8.9557e-07
8.09123e-07
7.17358e-07
6.4018e-07
5.86026e-07
5.53653e-07
5.3915e-07
5.5059e-07
5.87828e-07
6.30082e-07
6.71525e-07
7.15982e-07
7.63446e-07
8.12953e-07
8.63466e-07
9.13914e-07
9.63603e-07
1.01202e-06
1.05848e-06
1.10236e-06
1.14305e-06
1.17942e-06
1.21066e-06
1.23666e-06
1.25776e-06
1.27455e-06
1.28726e-06
1.29651e-06
1.30296e-06
1.30718e-06
1.30967e-06
1.31033e-06
1.3084e-06
1.30392e-06
1.29664e-06
1.28613e-06
1.27184e-06
1.25362e-06
1.23074e-06
1.20184e-06
1.1651e-06
1.11777e-06
1.05584e-06
9.73919e-07
8.67856e-07
7.41886e-07
6.18533e-07
5.36982e-07
1.07179e-09
5.04801e-07
6.01017e-06
2.11608e-05
4.02638e-05
3.42718e-05
2.63227e-05
0.000134056
0.000256073
0.000355028
0.000409526
0.000417828
0.000391403
0.000346103
0.000295389
0.000248171
0.000208524
0.000176516
0.000150804
0.00013258
0.000120588
0.000109961
9.86054e-05
8.78465e-05
7.77475e-05
6.80337e-05
5.84614e-05
4.88007e-05
3.89881e-05
2.90557e-05
1.89881e-05
8.80045e-06
1.46065e-06
1.19585e-05
2.27475e-05
3.36386e-05
4.43103e-05
5.43566e-05
6.36758e-05
7.20524e-05
7.92455e-05
8.50559e-05
8.9337e-05
9.21477e-05
9.37908e-05
9.43535e-05
9.3708e-05
9.20088e-05
8.94096e-05
8.58126e-05
8.13573e-05
7.63935e-05
7.14003e-05
6.72957e-05
6.56833e-05
6.92176e-05
8.10411e-05
0.000102274
0.000128096
0.000146787
1.08122e-08
6.0104e-06
0.000182864
0.000777916
0.00119243
0.000568942
0.00140282
0.00409342
0.00674044
0.00861452
0.00933044
0.00891611
0.00767363
0.00599144
0.00419008
0.00248179
0.000966551
0.000343453
0.0014775
0.00238712
0.00306357
0.0036624
0.00422518
0.00473804
0.00520733
0.00564296
0.00605232
0.00644217
0.00681576
0.0071744
0.00752022
0.00785487
0.0081794
0.00849901
0.0088162
0.00912802
0.00942852
0.00970865
0.00996774
0.0102014
0.0104045
0.0105732
0.0107039
0.0107987
0.010864
0.0109017
0.0109098
0.010892
0.0108512
0.0107858
0.0106995
0.0106009
0.0105019
0.0104244
0.0104059
0.0105075
0.0108006
0.0113095
0.0119218
0.0123569
4.51103e-08
2.11616e-05
0.00077793
0.00415517
0.00137672
0.0150552
0.0349764
0.0496994
0.0590171
0.0627965
0.061589
0.0565809
0.0492602
0.0411066
0.0331744
0.0261269
0.0202402
0.0156059
0.0120886
0.00929192
0.00706553
0.00548716
0.00446399
0.00379903
0.00338261
0.0031352
0.00300233
0.00293573
0.00290365
0.00288103
0.00284307
0.00276659
0.00263017
0.00240162
0.00206361
0.00162338
0.00110397
0.00053639
6.52239e-05
0.00067155
0.00125492
0.00179509
0.00227166
0.00269349
0.00308459
0.00344688
0.00379485
0.00414759
0.00452249
0.0049341
0.00542136
0.00605178
0.00692048
0.0081697
0.010008
0.0127139
0.0165302
0.0213424
0.0262437
0.0294988
9.70158e-08
4.02649e-05
0.00119246
0.00137686
0.0464092
0.161464
0.266643
0.319881
0.338051
0.330968
0.30742
0.275085
0.240149
0.207131
0.178282
0.154447
0.135491
0.121169
0.110798
0.101591
0.0920928
0.0846272
0.0792071
0.0749606
0.0715209
0.068652
0.0661988
0.0640375
0.0620823
0.0602602
0.0585139
0.05679
0.0550381
0.0532035
0.0512644
0.0492397
0.0471755
0.0451261
0.0431242
0.0412281
0.0394854
0.0379287
0.0365898
0.0354443
0.0344527
0.0336188
0.0328937
0.032243
0.0316389
0.031043
0.0303681
0.029473
0.0281596
0.0261387
0.0230007
0.0182277
0.0114069
0.00281669
0.00585262
0.0116219
9.62782e-08
3.42726e-05
0.000568975
0.015055
0.161464
0.463035
0.698945
0.807081
0.85672
0.857569
0.814423
0.738554
0.644015
0.545626
0.453309
0.372726
0.305606
0.251507
0.208741
0.174366
0.145857
0.122592
0.103951
0.088666
0.0759426
0.0651899
0.0559656
0.0479333
0.0408352
0.0344512
0.0286186
0.0231887
0.0180274
0.0130207
0.00811416
0.00330953
0.00134798
0.00579105
0.0099928
0.0138831
0.0174102
0.0205419
0.0232444
0.0255717
0.0275724
0.0292326
0.0306505
0.0318825
0.032961
0.0339558
0.035007
0.036332
0.0382311
0.0411213
0.04556
0.0521944
0.0614422
0.0727483
0.0838309
0.0910083
3.44815e-08
2.63234e-05
0.00140283
0.0349765
0.266643
0.698945
0.973777
1.08806
1.17471
1.24674
1.27544
1.24694
1.16223
1.03901
0.897141
0.755184
0.624969
0.512126
0.417838
0.341444
0.280321
0.230625
0.190229
0.157313
0.130322
0.108011
0.0893671
0.073612
0.0601294
0.0484067
0.0380515
0.0287183
0.0201098
0.0119915
0.004227
0.00323684
0.0103814
0.0171551
0.0235384
0.0294519
0.0348485
0.0397067
0.043997
0.0478101
0.0512088
0.0541669
0.056854
0.059369
0.0617557
0.0641385
0.0667391
0.0698819
0.0740071
0.0796845
0.0876153
0.098498
0.112566
0.128704
0.143757
0.153121
2.79852e-07
0.00013406
0.00409352
0.0496998
0.319882
0.807082
1.08806
1.14326
1.17949
1.2828
1.41364
1.51757
1.55355
1.51285
1.40801
1.26241
1.1001
0.93939
0.791579
0.662379
0.553057
0.46192
0.386298
0.323757
0.27201
0.229063
0.193189
0.163005
0.13737
0.115337
0.0961674
0.0792165
0.06394
0.0499262
0.0369013
0.0247167
0.0133243
0.00272648
0.00708526
0.0160541
0.0241665
0.0314345
0.0378583
0.0435791
0.0486821
0.0531389
0.0571888
0.060979
0.0645671
0.0681213
0.0719351
0.0764163
0.0821094
0.089676
0.0998724
0.113341
0.130066
0.148498
0.165083
0.175148
5.62329e-07
0.00025608
0.00674066
0.0590184
0.338053
0.85673
1.17472
1.17949
1.10301
1.11889
1.24974
1.44029
1.6141
1.71991
1.73761
1.67333
1.54853
1.38818
1.21492
1.04586
0.891441
0.755104
0.637266
0.536861
0.452079
0.380762
0.320747
0.270132
0.227222
0.190541
0.158914
0.131299
0.106806
0.0847526
0.0646662
0.0462386
0.0293017
0.0137703
0.000415222
0.0132536
0.0247916
0.0350902
0.0442055
0.0523377
0.0596124
0.0660176
0.0718574
0.077349
0.0825746
0.0877481
0.0932344
0.0995257
0.107261
0.117174
0.130043
0.146406
0.165968
0.186772
0.204943
0.215758
7.92124e-07
0.000355041
0.00861487
0.0627986
0.330976
0.857585
1.24675
1.2828
1.11889
0.985512
0.999262
1.15835
1.39142
1.62032
1.78712
1.86446
1.8512
1.76325
1.62398
1.45761
1.28402
1.11587
0.960364
0.820988
0.698787
0.593094
0.502343
0.42479
0.358495
0.301653
0.25266
0.210084
0.172642
0.13932
0.109399
0.0823411
0.0578163
0.0356001
0.0155528
0.00242175
0.0184599
0.0327027
0.0452915
0.0564964
0.0665071
0.0753577
0.0834105
0.0909661
0.0981515
0.105224
0.112608
0.120875
0.130739
0.142978
0.158359
0.177301
0.199256
0.221968
0.241388
0.252789
9.2057e-07
0.000409543
0.00933096
0.0615919
0.307425
0.814432
1.27545
1.41364
1.24973
0.999254
0.848604
0.874381
1.0527
1.31357
1.58014
1.79409
1.92311
1.95965
1.91371
1.80559
1.65808
1.4909
1.31886
1.15234
0.997617
0.857783
0.733689
0.625034
0.530455
0.448439
0.377235
0.315213
0.260751
0.212569
0.169659
0.131219
0.0967269
0.0657699
0.0381021
0.0134888
0.00833108
0.0276122
0.0446134
0.0596878
0.0731169
0.085017
0.0958039
0.105872
0.115422
0.124753
0.134343
0.144826
0.156981
0.171613
0.189472
0.210865
0.235055
0.259585
0.280293
0.292375
9.45341e-07
0.000417846
0.0089166
0.0565848
0.275097
0.738567
1.24694
1.51756
1.44027
1.15834
0.874375
0.729625
0.766933
0.956695
1.23217
1.52216
1.76977
1.94045
2.02148
2.01775
1.94491
1.82227
1.6687
1.50034
1.32958
1.16493
1.01145
0.871901
0.746899
0.636194
0.538651
0.452839
0.377102
0.310082
0.250567
0.197501
0.150188
0.107988
0.0705414
0.0374288
0.0082301
0.0174493
0.0400282
0.059962
0.0776517
0.0933299
0.107477
0.12059
0.132959
0.144947
0.157068
0.170005
0.184592
0.20166
0.221948
0.245693
0.272047
0.29844
0.320599
0.333517
8.95634e-07
0.00039143
0.00767428
0.0492631
0.240155
0.644024
1.16223
1.55355
1.61408
1.3914
1.05268
0.766924
0.63497
0.68221
0.876753
1.15809
1.46099
1.73162
1.93458
2.05377
2.08923
2.05129
1.95585
1.8202
1.66067
1.49077
1.32055
1.1571
1.00448
0.864947
0.738974
0.626157
0.525441
0.435687
0.355798
0.284553
0.221192
0.164871
0.115116
0.071296
0.0328125
0.000907893
0.0304695
0.0564608
0.0794217
0.0997469
0.117999
0.13478
0.150495
0.165586
0.180597
0.196243
0.21341
0.232965
0.255665
0.281737
0.310299
0.338723
0.362577
0.376522
8.09211e-07
0.000346138
0.00599235
0.0411098
0.207132
0.545628
1.039
1.51283
1.71988
1.62029
1.31354
0.956681
0.682202
0.564888
0.61894
0.813846
1.09519
1.40399
1.68984
1.91762
2.06877
2.13873
2.13345
2.06528
1.94962
1.80205
1.63645
1.46407
1.29325
1.1298
0.976946
0.83632
0.70835
0.592742
0.488958
0.395971
0.31313
0.239521
0.174582
0.117515
0.0675153
0.0238082
0.0144109
0.0478888
0.077331
0.103335
0.126582
0.147765
0.167435
0.186132
0.204429
0.223061
0.242973
0.26509
0.290236
0.318688
0.349605
0.3803
0.406124
0.421273
7.17435e-07
0.000295421
0.00419087
0.0331773
0.178285
0.453309
0.897127
1.40799
1.73757
1.7871
1.58012
1.23215
0.876744
0.618937
0.51508
0.57348
0.765868
1.04379
1.35403
1.64976
1.89658
2.07388
2.17363
2.19797
2.15599
2.06081
1.92674
1.76757
1.59506
1.41888
1.24582
1.08046
0.92564
0.782789
0.652572
0.534712
0.429092
0.334926
0.251722
0.178572
0.114516
0.0585993
0.00977733
0.0328651
0.0702071
0.103094
0.132376
0.158815
0.18314
0.206016
0.228048
0.249994
0.272858
0.297664
0.325363
0.356342
0.389846
0.42309
0.451131
0.46763
6.40211e-07
0.000248186
0.00248227
0.0261297
0.154451
0.372724
0.75518
1.2624
1.67332
1.86446
1.7941
1.52216
1.15808
0.813843
0.573479
0.481226
0.541973
0.730208
1.00286
1.31191
1.6139
1.87517
2.07376
2.199
2.24978
2.23218
2.15687
2.03667
1.88474
1.71333
1.53262
1.35048
1.17308
1.00441
0.847086
0.702438
0.571342
0.453638
0.349123
0.256941
0.176101
0.105496
0.0438725
0.00984575
0.0567177
0.0978762
0.134386
0.167075
0.196859
0.224562
0.250833
0.276477
0.30257
0.330282
0.360738
0.394492
0.430873
0.466938
0.497389
0.515328
5.86036e-07
0.000208532
0.000966729
0.0202424
0.135498
0.305611
0.624971
1.1001
1.54856
1.85122
1.92311
1.76977
1.46099
1.09519
0.765867
0.541973
0.459329
0.521034
0.704333
0.970908
1.27729
1.58296
1.85518
2.07114
2.21813
2.29224
2.29679
2.23995
2.13298
1.98814
1.81763
1.63203
1.44104
1.2519
1.0701
0.898936
0.741166
0.597794
0.469276
0.355198
0.254755
0.166738
0.0898645
0.0229224
0.0353551
0.0863914
0.131488
0.171559
0.207714
0.240975
0.272061
0.301872
0.331572
0.362516
0.396055
0.432934
0.472506
0.51162
0.544583
0.563986
5.53725e-07
0.000176541
0.000342877
0.015607
0.121167
0.251505
0.512115
0.939375
1.38818
1.76327
1.95966
1.94045
1.73164
1.404
1.0438
0.730212
0.521038
0.446211
0.507938
0.686044
0.946328
1.24923
1.55681
1.83734
2.06753
2.23296
2.32737
2.35138
2.31086
2.21517
2.07573
1.90517
1.71499
1.51571
1.31593
1.12173
0.938309
0.76861
0.614286
0.475791
0.35298
0.244756
0.149994
0.0674185
0.00440849
0.0671734
0.122427
0.171199
0.214788
0.254434
0.290989
0.325494
0.359269
0.393919
0.430997
0.471428
0.514505
0.556816
0.592294
0.613103
5.39154e-07
0.000150808
0.00147746
0.0120896
0.110802
0.208743
0.417837
0.791575
1.2149
1.62398
1.9137
2.02149
1.93461
1.68987
1.35405
1.00288
0.704341
0.507939
0.439398
0.500535
0.673489
0.927575
1.22654
1.53479
1.82162
2.0634
2.24424
2.35562
2.39559
2.36803
2.28131
2.14668
1.9758
1.78129
1.57436
1.36461
1.15972
0.965207
0.78489
0.620522
0.473087
0.342019
0.22661
0.125794
0.0380439
0.0385625
0.105766
0.164754
0.217028
0.264047
0.306861
0.346719
0.385147
0.424026
0.465211
0.509672
0.556528
0.602093
0.63997
0.662058
5.50494e-07
0.00013254
0.00238788
0.00929097
0.101594
0.174373
0.341457
0.662409
1.04591
1.45766
1.80565
2.01782
2.05383
1.91766
1.64979
1.31193
0.97092
0.686055
0.500531
0.436973
0.497083
0.665051
0.91313
1.20797
1.51603
1.80744
2.05826
2.251
2.37525
2.42779
2.41104
2.33212
2.2006
2.02902
1.83034
1.61684
1.39868
1.18431
0.980167
0.790063
0.616704
0.460732
0.32208
0.200369
0.0941576
0.00133631
0.0798592
0.150808
0.213235
0.268805
0.318848
0.36488
0.408703
0.452482
0.498325
0.547264
0.598122
0.646875
0.686921
0.710099
5.87756e-07
0.000120556
0.0030643
0.0070635
0.0920923
0.145863
0.280341
0.553087
0.891467
1.28408
1.65815
1.94496
2.08927
2.06879
1.8966
1.61391
1.2773
0.946321
0.673474
0.49707
0.437355
0.496111
0.659244
0.901569
1.19216
1.49915
1.79327
2.04989
2.2511
2.38548
2.44812
2.43985
2.36608
2.23687
2.06462
1.86328
1.64435
1.41894
1.19658
0.983376
0.784448
0.602541
0.438654
0.293549
0.166223
0.0546589
0.0427946
0.127699
0.201994
0.267541
0.326003
0.379258
0.429404
0.478889
0.530006
0.583734
0.638668
0.690429
0.732309
0.75632
6.30086e-07
0.000109958
0.00366249
0.00548733
0.0846287
0.122596
0.230632
0.461928
0.755107
1.11587
1.49088
1.82227
2.05129
2.13873
2.07387
1.87515
1.58294
1.2492
0.927531
0.665006
0.496078
0.439239
0.49634
0.65479
0.891512
1.1775
1.48204
1.77651
2.03666
2.2438
2.38539
2.45509
2.45208
2.3822
2.25532
2.08441
1.88099
1.65794
1.42682
1.19671
0.975048
0.767866
0.577983
0.407542
0.25658
0.123684
0.00754643
0.0935689
0.181707
0.258929
0.32728
0.389036
0.44664
0.502777
0.559811
0.618597
0.677439
0.73182
0.775121
0.799704
6.71559e-07
9.86144e-05
0.00422497
0.0044659
0.0792116
0.103954
0.190231
0.3863
0.637254
0.960324
1.31883
1.66867
1.95583
2.13343
2.17361
2.07373
1.85515
1.55677
1.22649
0.913051
0.659182
0.496299
0.441443
0.496622
0.650399
0.881287
1.16183
1.46265
1.75579
2.01706
2.22722
2.37247
2.44551
2.44665
2.38169
2.25954
2.09003
1.88602
1.65957
1.42242
1.18449
0.955266
0.740321
0.543903
0.367372
0.210815
0.0734507
0.0463554
0.150597
0.2415
0.321507
0.393313
0.459703
0.52354
0.587157
0.651194
0.713692
0.770139
0.814302
0.839109
7.16027e-07
8.78587e-05
0.00473786
0.00379961
0.0749602
0.0886633
0.157308
0.323751
0.536854
0.820978
1.15232
1.50033
1.82019
2.06528
2.19795
2.19897
2.07111
1.83728
1.53473
1.20788
0.901487
0.654744
0.496611
0.442937
0.495785
0.64462
0.869283
1.14361
1.43929
1.72903
1.98859
2.19799
2.34326
2.41929
2.4269
2.36891
2.25169
2.08467
1.87933
1.64893
1.40541
1.16079
0.924306
0.70294
0.500125
0.318248
0.157268
0.0161624
0.106698
0.213624
0.307389
0.391066
0.467756
0.540422
0.611266
0.680667
0.746488
0.804406
0.848859
0.873554
7.63466e-07
7.77479e-05
0.0052075
0.00338125
0.0715157
0.0759326
0.130312
0.272007
0.45209
0.698799
0.997628
1.3296
1.66066
1.94961
2.15598
2.24977
2.2181
2.06748
1.82158
1.51596
1.19209
0.891463
0.650398
0.495769
0.442538
0.492631
0.636164
0.853884
1.12079
1.40961
1.69343
1.94677
2.15277
2.30089
2.38487
2.40064
2.34811
2.23407
2.06789
1.86113
1.62613
1.3769
1.12589
0.883132
0.655332
0.447459
0.261126
0.0962502
0.0479101
0.173506
0.283457
0.381103
0.469773
0.552457
0.631136
0.705916
0.774658
0.833484
0.877669
0.90193
8.1293e-07
6.80153e-05
0.0056435
0.00313297
0.0686469
0.0651819
0.108003
0.229058
0.380761
0.593097
0.857789
1.16494
1.49078
1.80205
2.0608
2.23217
2.29221
2.23292
2.06336
1.8074
1.49908
1.17746
0.881275
0.644599
0.492621
0.439198
0.485964
0.623298
0.832883
1.09095
1.36955
1.6434
1.89184
2.10056
2.25579
2.34745
2.36889
2.32049
2.20767
2.03997
1.83043
1.59168
1.33685
1.08025
0.831549
0.598952
0.386517
0.196027
0.0279148
0.119193
0.248043
0.361993
0.464488
0.558421
0.6455
0.725615
0.796892
0.856081
0.899518
0.923095
8.63383e-07
5.84179e-05
0.0060533
0.00299927
0.0661948
0.0559621
0.0893651
0.193188
0.320747
0.502344
0.733689
1.01146
1.32058
1.63642
1.9267
2.15685
2.29676
2.32733
2.2442
2.05821
1.7932
1.48198
1.16179
0.869233
0.636135
0.485953
0.431349
0.473431
0.603214
0.802854
1.0485
1.31614
1.58249
1.83194
2.04437
2.20438
2.30145
2.32782
2.28332
2.17135
2.00182
1.78848
1.5455
1.28676
1.02443
0.771075
0.533897
0.317011
0.122819
0.0486085
0.199233
0.332033
0.450324
0.556771
0.652795
0.738236
0.811665
0.870768
0.913089
0.935752
9.13847e-07
4.87602e-05
0.00644312
0.00293292
0.0640339
0.0479306
0.0736098
0.163004
0.270136
0.42479
0.62502
0.871862
1.15707
1.46406
1.76753
2.03665
2.23994
2.35136
2.35559
2.25095
2.04984
1.77646
1.46261
1.14353
0.85383
0.623279
0.473428
0.415823
0.451975
0.572209
0.760564
0.993217
1.25281
1.51866
1.76799
1.98085
2.14235
2.24207
2.27367
2.23382
2.12414
1.95414
1.73699
1.48934
1.22653
0.960117
0.702087
0.459749
0.238408
0.0403189
0.134871
0.289167
0.425344
0.545617
0.651155
0.741945
0.817256
0.875944
0.916921
0.938513
9.63649e-07
3.89912e-05
0.00681592
0.00290241
0.0620769
0.0408232
0.0601122
0.137349
0.227194
0.358469
0.530436
0.746886
1.00448
1.29329
1.59512
1.8848
2.13301
2.31087
2.39557
2.37521
2.25106
2.03662
1.75578
1.43925
1.12075
0.832866
0.60321
0.451971
0.390122
0.419758
0.530167
0.705259
0.932038
1.18812
1.45151
1.69884
1.91074
2.07228
2.17265
2.20636
2.17035
2.06544
1.8964
1.67763
1.42504
1.15752
0.887237
0.623032
0.375442
0.149463
0.05264
0.230988
0.387159
0.522649
0.638362
0.73467
0.811765
0.869972
0.909507
0.93002
1.01202e-06
2.90376e-05
0.00717498
0.00287882
0.0602541
0.0344409
0.0483945
0.115325
0.190535
0.301644
0.448422
0.636206
0.864944
1.12976
1.4189
1.71343
1.98822
2.2152
2.36805
2.42779
2.38547
2.24379
2.01704
1.72899
1.40957
1.09094
0.802841
0.572221
0.419768
0.354917
0.373916
0.473134
0.641527
0.863756
1.11777
1.37986
1.62629
1.8369
1.9971
2.09697
2.13034
2.09578
1.99458
1.82967
1.6106
1.3542
1.08077
0.80396
0.533302
0.280176
0.0497603
0.154781
0.332974
0.485131
0.611843
0.714049
0.793141
0.85105
0.889264
0.908834
1.05846e-06
1.89579e-05
0.00752107
0.00284004
0.058507
0.0286066
0.0380358
0.096151
0.1589
0.252651
0.377232
0.538661
0.739005
0.976953
1.24586
1.5327
1.81775
2.0759
2.28151
2.41117
2.44818
2.38543
2.22723
1.98859
1.69342
1.36954
1.04851
0.760594
0.530188
0.373929
0.300102
0.311333
0.40373
0.568899
0.788713
1.04137
1.30263
1.54947
1.76101
1.92061
2.01845
2.04997
2.01393
1.91397
1.75459
1.53555
1.276
0.994644
0.70977
0.432414
0.174258
0.0577171
0.259627
0.429942
0.568716
0.677558
0.759274
0.817269
0.854611
0.873434
1.10239e-06
8.78653e-06
0.00785546
0.00276372
0.0567811
0.0231717
0.0286938
0.0791864
0.131271
0.210063
0.315202
0.452842
0.626177
0.83636
1.08056
1.35066
1.63227
1.90538
2.14682
2.33212
2.43985
2.45511
2.37249
2.198
1.94675
1.64335
1.31611
0.993223
0.705273
0.473133
0.311347
0.230147
0.236151
0.326489
0.489978
0.709
0.961332
1.22292
1.47046
1.68267
1.8431
1.93966
1.96771
1.92925
1.82817
1.66838
1.45275
1.18918
0.897632
0.604692
0.321627
0.0627979
0.163796
0.353668
0.505833
0.622443
0.707729
0.766656
0.803827
0.822225
1.14293e-06
1.53792e-06
0.00818133
0.00262303
0.0550234
0.0180061
0.0200861
0.0639163
0.106786
0.172633
0.260765
0.37713
0.525486
0.708443
0.925837
1.17336
1.44141
1.71537
1.9762
2.20095
2.36628
2.45215
2.44557
2.34329
2.15275
1.89182
1.58248
1.2528
0.932051
0.641566
0.403746
0.236095
0.15166
0.155668
0.244788
0.40788
0.627113
0.88023
1.143
1.39136
1.60387
1.76418
1.86032
1.88565
1.84223
1.73707
1.57551
1.36216
1.09156
0.790701
0.491164
0.208368
0.0424062
0.252787
0.419807
0.545715
0.635979
0.697149
0.735127
0.753627
1.17922e-06
1.20797e-05
0.00850177
0.0023926
0.0531879
0.0130019
0.0119753
0.0499131
0.0847454
0.139323
0.212589
0.310127
0.43577
0.59288
0.782985
1.00475
1.25234
1.51619
1.78161
2.02946
2.23716
2.38231
2.44679
2.4194
2.30093
2.10061
1.83199
1.51869
1.18808
0.86374
0.568855
0.326421
0.15565
0.069389
0.072514
0.161605
0.32526
0.545579
0.800127
1.06416
1.31332
1.52582
1.68483
1.77871
1.80094
1.75181
1.64033
1.47735
1.26304
0.984998
0.677875
0.378849
0.106626
0.124135
0.307281
0.444307
0.541395
0.606475
0.646421
0.665673
1.21061e-06
2.28166e-05
0.00881774
0.00206062
0.0512599
0.00811121
0.00423202
0.0369166
0.0646948
0.109439
0.169714
0.250628
0.355868
0.489025
0.652616
0.847136
1.07013
1.31602
1.57448
1.83052
2.06491
2.25548
2.38176
2.42695
2.3849
2.25588
2.04445
1.76803
1.4515
1.11777
0.788692
0.48994
0.244826
0.0725866
0.0142393
0.0108555
0.0791324
0.24417
0.466161
0.722176
0.987401
1.23674
1.44825
1.60451
1.69333
1.71053
1.65607
1.5391
1.37514
1.15848
0.875456
0.570454
0.283245
0.0344369
0.165297
0.315203
0.42125
0.49211
0.53548
0.556386
1.23689e-06
3.35983e-05
0.00912715
0.00163003
0.0492511
0.00332594
0.00321071
0.0247496
0.04628
0.0823914
0.13127
0.197548
0.284596
0.396005
0.534726
0.702466
0.89899
1.1217
1.36451
1.61672
1.86303
2.08428
2.25938
2.36899
2.40084
2.34769
2.20455
1.98092
1.69886
1.37988
1.04142
0.709077
0.408024
0.161788
0.0107284
0.097052
0.092593
0.00105752
0.165851
0.389562
0.647006
0.91265
1.16082
1.36958
1.52073
1.60345
1.61398
1.55407
1.4349
1.27286
1.05564
0.775077
0.484467
0.222566
0.00802249
0.155691
0.272655
0.351447
0.399942
0.423225
1.2581e-06
4.42303e-05
0.00942679
0.0011139
0.0471905
0.00133042
0.0103582
0.0133481
0.029327
0.0578434
0.0967561
0.150217
0.221216
0.31316
0.429139
0.571411
0.741312
0.938457
1.15996
1.39911
1.64473
1.88143
2.09043
2.25229
2.34866
2.36919
2.30164
2.14238
1.91071
1.62629
1.3027
0.961436
0.627339
0.325531
0.0793334
0.0925108
0.177639
0.171516
0.0781264
0.0905607
0.315705
0.573769
0.838262
1.08347
1.28687
1.43137
1.50686
1.51045
1.44802
1.33262
1.17881
0.966859
0.699735
0.437386
0.211846
0.0357575
0.093209
0.181713
0.236957
0.263553
1.27465e-06
5.43704e-05
0.00970891
0.000538559
0.045129
0.00578698
0.0171455
0.00274147
0.0137938
0.0356369
0.0658256
0.108069
0.164988
0.239686
0.335156
0.453925
0.598104
0.768935
0.965747
1.18491
1.41946
1.65821
1.88592
2.08458
2.23387
2.32024
2.3276
2.24186
2.07205
1.83677
1.54945
1.22301
0.880366
0.545742
0.24432
0.00100586
0.171562
0.255095
0.247285
0.152236
0.0177178
0.243342
0.500216
0.761466
1.0015
1.19795
1.33471
1.40285
1.40268
1.34371
1.24125
1.10457
0.906882
0.665412
0.441895
0.257379
0.118052
0.0192987
0.0437277
0.0744055
1.2872e-06
6.37694e-05
0.00996951
6.62467e-05
0.0431251
0.00998745
0.0235203
0.00705504
0.000369198
0.0156176
0.0381916
0.0706598
0.115269
0.174791
0.25199
0.349459
0.469696
0.614747
0.785403
0.980742
1.19694
1.42692
1.65934
1.87902
2.06752
2.20728
2.28292
2.2731
2.17215
1.99673
1.76075
1.47027
1.14294
0.800141
0.466198
0.16577
0.0782419
0.24735
0.329471
0.320424
0.224544
0.0545529
0.169621
0.423326
0.679308
0.912334
1.10092
1.23028
1.29472
1.29731
1.25076
1.17191
1.06261
0.888781
0.683193
0.502995
0.358695
0.251709
0.181435
0.146671
1.29666e-06
7.20603e-05
0.0102011
0.000662911
0.0412478
0.0138495
0.0293973
0.0159815
0.0131629
0.00231161
0.0136196
0.0375819
0.0714718
0.117706
0.178776
0.257158
0.355422
0.476006
0.620706
0.790307
0.983719
1.19683
1.42213
1.64823
1.86034
2.03901
2.17038
2.23267
2.20524
2.09625
1.9201
1.68227
1.39111
1.06402
0.722089
0.389437
0.0904003
0.152392
0.320502
0.401993
0.392835
0.297624
0.129506
0.0913238
0.339638
0.588837
0.814311
0.995752
1.12147
1.18905
1.20383
1.18004
1.13551
1.06112
0.919343
0.755931
0.619048
0.512145
0.437366
0.399416
1.30365e-06
7.90494e-05
0.0103997
0.00122644
0.0395394
0.0173333
0.0347441
0.0240443
0.0246545
0.0183134
0.00818068
0.00837804
0.0329492
0.0676271
0.114595
0.176132
0.254716
0.352868
0.472891
0.616528
0.784416
0.975216
1.18474
1.40532
1.62534
1.82932
2.00064
2.12273
2.1691
2.12925
2.01762
1.84254
1.60349
1.31309
0.987221
0.646771
0.315473
0.0174606
0.224734
0.392911
0.475154
0.467553
0.374911
0.210665
0.00482641
0.246612
0.488681
0.707648
0.886045
1.0154
1.09545
1.13315
1.14258
1.13754
1.10073
1.00089
0.882658
0.784475
0.71538
0.67903
1.30817e-06
8.47548e-05
0.0105661
0.00175819
0.0379925
0.0204577
0.0396004
0.0313189
0.0349677
0.0325791
0.0274928
0.0173404
0.00081491
0.0238829
0.0586469
0.105497
0.166694
0.244711
0.341974
0.460629
0.602403
0.767643
0.954993
1.16044
1.37618
1.59088
1.78744
1.95305
2.06442
2.0947
2.04901
1.93902
1.7637
1.52551
1.23649
0.912319
0.57339
0.242942
0.0548329
0.297718
0.467501
0.552282
0.548106
0.459979
0.301213
0.0920586
0.143059
0.379631
0.596372
0.779183
0.92147
1.02504
1.09597
1.14332
1.1796
1.18229
1.12584
1.05564
0.997596
0.964713
1.31028e-06
8.91986e-05
0.0107008
0.00225275
0.0366178
0.0232127
0.0439577
0.0378192
0.0441644
0.0452471
0.0445643
0.0399729
0.0304068
0.0143378
0.00986292
0.0439665
0.089967
0.150103
0.226738
0.322276
0.438898
0.578126
0.740493
0.924739
1.12629
1.33723
1.54558
1.7368
1.89596
1.99384
2.01317
1.96704
1.85971
1.68439
1.44787
1.16037
0.837796
0.499803
0.169445
0.129473
0.374718
0.547978
0.637144
0.638147
0.555744
0.403085
0.199873
0.0307235
0.26633
0.488654
0.68551
0.85167
0.988096
1.09814
1.18641
1.25717
1.29407
1.28829
1.26337
1.24682
1.31035e-06
9.22591e-05
0.0108013
0.00269892
0.0354293
0.0255969
0.047838
0.0436102
0.0523682
0.0565229
0.0597035
0.0599607
0.0564362
0.0478316
0.0327655
0.00969495
0.0231216
0.0676536
0.126087
0.200723
0.293914
0.407923
0.544311
0.70353
0.88398
1.08123
1.28768
1.48993
1.67756
1.82932
1.91349
1.92869
1.88502
1.77819
1.60408
1.36921
1.08312
0.761298
0.423308
0.0915098
0.210288
0.459661
0.638018
0.732848
0.739882
0.663522
0.51614
0.316141
0.0847947
0.157772
0.395335
0.61699
0.816491
0.992812
1.14516
1.26991
1.37185
1.43784
1.47212
1.48762
1.30822e-06
9.39792e-05
0.0108684
0.00309818
0.0344239
0.0276145
0.0512555
0.0487333
0.0596648
0.0665575
0.0731594
0.0776805
0.0794306
0.0773109
0.0701491
0.0566139
0.0352022
0.00420151
0.0382982
0.0944414
0.166561
0.256993
0.367883
0.500779
0.656062
0.832351
1.02534
1.22765
1.42599
1.61116
1.75478
1.828
1.84176
1.80041
1.69286
1.52033
1.28655
1.00127
0.679255
0.339801
0.00518398
0.300922
0.555643
0.739968
0.840846
0.853677
0.781725
0.636101
0.43365
0.193604
0.0657902
0.329217
0.584695
0.825148
1.04381
1.23614
1.39406
1.51597
1.59824
1.63939
1.30377e-06
9.45236e-05
0.0109057
0.00345995
0.0335914
0.0292726
0.0542116
0.0531877
0.0660663
0.0754042
0.0850587
0.0933646
0.0997712
0.103342
0.103077
0.0978276
0.0863014
0.0670322
0.0383614
0.00160696
0.0549989
0.124088
0.211269
0.318736
0.447956
0.599445
0.77174
0.960978
1.15858
1.35497
1.5359
1.66843
1.73677
1.75143
1.71015
1.60307
1.43102
1.19765
0.912123
0.588685
0.246618
0.0920277
0.403161
0.663585
0.853756
0.959904
0.976174
0.904525
0.754342
0.540976
0.282341
0.00414959
0.302202
0.597951
0.879129
1.13538
1.35688
1.53199
1.6526
1.71407
1.29652e-06
9.38573e-05
0.0109134
0.00380634
0.0328687
0.0306864
0.0568931
0.0572297
0.0718967
0.0834457
0.0958332
0.107497
0.118008
0.126574
0.132345
0.134325
0.13139
0.122287
0.10558
0.0796217
0.0425035
0.00788327
0.0738151
0.157645
0.261473
0.386984
0.534587
0.702867
0.888207
1.08159
1.27659
1.45309
1.57555
1.64017
1.65574
1.61357
1.5064
1.33422
1.1003
0.813591
0.488246
0.142805
0.200158
0.516288
0.781792
0.976136
1.08412
1.09907
1.02068
0.857549
0.623457
0.336123
0.0141844
0.323189
0.657571
0.970966
1.24809
1.47279
1.63115
1.7144
1.28616e-06
9.20878e-05
0.0108939
0.0041523
0.0322306
0.0319024
0.0593903
0.0610014
0.0773698
0.0909839
0.105884
0.12059
0.134767
0.147737
0.15877
0.167009
0.171471
0.171087
0.164612
0.150627
0.127474
0.0932946
0.0460413
0.0165106
0.096628
0.196337
0.317286
0.460118
0.623522
0.80458
0.995035
1.1896
1.36236
1.47727
1.53878
1.55359
1.50987
1.40214
1.22937
0.994846
0.706808
0.379121
0.0303939
0.316382
0.63617
0.904384
1.09875
1.20331
1.20918
1.11535
0.928679
0.664286
0.34067
0.0197153
0.392694
0.75357
1.07916
1.34666
1.53755
1.63886
1.27198e-06
8.94329e-05
0.0108518
0.00452122
0.0316379
0.0329649
0.0617576
0.0645693
0.082574
0.0981476
0.115413
0.132945
0.150475
0.16741
0.18311
0.196825
0.207673
0.214736
0.216953
0.213131
0.20185
0.181512
0.150336
0.106357
0.0475042
0.0283404
0.123244
0.238798
0.375814
0.533683
0.710143
0.897969
1.09171
1.26294
1.37472
1.43424
1.44726
1.40182
1.2937
1.12056
0.885343
0.595878
0.266018
0.0850789
0.433772
0.754273
1.02033
1.20897
1.30206
1.28954
1.16945
0.950588
0.648878
0.287374
0.105575
0.499234
0.862649
1.16719
1.38722
1.50385
1.25384e-06
8.58028e-05
0.0107856
0.00492888
0.0310505
0.0339468
0.0641235
0.0681031
0.0877256
0.105197
0.124723
0.144915
0.165554
0.186101
0.205986
0.224533
0.240943
0.254399
0.263997
0.268737
0.267442
0.258796
0.241322
0.21339
0.173207
0.118828
0.0482218
0.0406898
0.149817
0.280489
0.432655
0.604813
0.790711
0.984909
1.15813
1.27213
1.33166
1.34265
1.29616
1.18801
1.01449
0.778578
0.488271
0.15755
0.193735
0.541069
0.857347
1.11497
1.28919
1.36104
1.31947
1.16495
0.908054
0.568892
0.177558
0.230813
0.618682
0.95005
1.19207
1.32065
1.23097e-06
8.13376e-05
0.010699
0.00541481
0.0303779
0.034995
0.0667209
0.0719143
0.093211
0.112583
0.134316
0.157038
0.180565
0.204394
0.228014
0.250797
0.272023
0.290944
0.306811
0.318789
0.325937
0.327194
0.321401
0.30725
0.283275
0.247813
0.198947
0.134542
0.0523048
0.0500348
0.174423
0.321678
0.491117
0.677735
0.875174
1.0551
1.17786
1.24006
1.24964
1.2029
1.09468
0.920902
0.685158
0.395055
0.0656185
0.282439
0.623323
0.928549
1.16946
1.31966
1.36077
1.28272
1.08885
0.79492
0.428463
0.0265579
0.368679
0.713837
0.970429
1.10693
1.20202e-06
7.63835e-05
0.0106007
0.00604673
0.0294805
0.0363234
0.0698688
0.076403
0.0995111
0.120861
0.144812
0.169989
0.196226
0.223043
0.249976
0.276455
0.301844
0.325457
0.346673
0.364824
0.379187
0.38895
0.393216
0.390961
0.380985
0.361861
0.331877
0.288997
0.230814
0.154606
0.0575645
0.0628906
0.20837
0.378734
0.570158
0.77463
0.96623
1.10375
1.17105
1.17942
1.13253
1.02446
0.851535
0.616601
0.328618
0.00376812
0.336278
0.664162
0.950354
1.16478
1.28284
1.28606
1.16874
0.939387
0.62017
0.247154
0.135196
0.47894
0.739412
0.879518
1.16526e-06
7.13936e-05
0.0105018
0.00691576
0.0281669
0.0382225
0.0739932
0.0820944
0.107245
0.130724
0.156969
0.184583
0.213404
0.24297
0.272856
0.302565
0.331561
0.359251
0.385118
0.408664
0.429357
0.446591
0.459651
0.467701
0.469717
0.464439
0.450284
0.425298
0.3871
0.332897
0.25954
0.163719
0.0423805
0.106533
0.283017
0.484117
0.699334
0.906308
1.06174
1.13494
1.14222
1.09581
0.987927
0.816246
0.584009
0.301342
0.0147578
0.340904
0.648609
0.907579
1.08877
1.16863
1.13306
0.981724
0.729869
0.407839
0.0595309
0.26528
0.517347
0.655162
1.11793e-06
6.72659e-05
0.0104237
0.00816427
0.0261475
0.0411102
0.07967
0.089661
0.11716
0.142966
0.171606
0.201657
0.232967
0.265097
0.297674
0.330294