/*--------------------------------*- C++ -*----------------------------------*\
| =========                 |                                                 |
| \\      /  F ield         | OpenFOAM: The Open Source CFD Toolbox           |
|  \\    /   O peration     | Version:  2212                                  |
|   \\  /    A nd           | Website:  www.openfoam.com                      |
|    \\/     M anipulation  |                                                 |
\*---------------------------------------------------------------------------*/
FoamFile
{
    version     2.0;
    format      ascii;
    arch        "LSB;label=32;scalar=64";
    class       volScalarField;
    location    "1";
    object      Q_mix;
}
// * * * * * * * * * * * * * * * * * * * * * * * * * * * * * * * * * * * * * //

dimensions      [0 0 0 0 0 0 0];

internalField   nonuniform List<scalar> 
3600
(
6.25
6.25
6.24999
6.24999
6.24997
6.24996
6.24994
6.24992
6.2499
6.24988
6.24986
6.24984
6.24983
6.24981
6.2498
6.24979
6.24977
6.24976
6.24975
6.24974
6.24973
6.24972
6.24971
6.2497
6.2497
6.24969
6.24968
6.24967
6.24966
6.24965
6.24965
6.24964
6.24963
6.24963
6.24962
6.24962
6.24962
6.24961
6.24961
6.24961
6.24961
6.24961
6.2496
6.2496
6.2496
6.2496
6.24961
6.24961
6.24961
6.24961
6.24962
6.24962
6.24962
6.24963
6.24964
6.24964
6.24965
6.24966
6.24967
6.24968
6.25
2.85829
3.84963
3.97175
3.98175
3.98191
3.98247
3.98075
3.97761
3.97379
3.96962
3.9654
3.96139
3.95771
3.95437
3.95136
3.94862
3.94608
3.94369
3.94145
3.93932
3.93727
3.93528
3.93337
3.93152
3.92975
3.92804
3.92641
3.92486
3.92339
3.922
3.92071
3.91952
3.91843
3.91745
3.91658
3.91583
3.91516
3.9146
3.91415
3.9138
3.91354
3.91337
3.91329
3.9133
3.91339
3.91357
3.91385
3.91422
3.91471
3.91531
3.91605
3.91695
3.91802
3.9193
3.92078
3.92241
3.92406
3.92547
3.92631
6.24999
3.84963
3.01487
3.86927
4.06425
4.08921
4.08158
4.06271
4.03895
4.01253
3.98522
3.95852
3.93349
3.91065
3.89011
3.87167
3.85502
3.83981
3.82575
3.81268
3.80048
3.78893
3.77794
3.7675
3.75758
3.74816
3.73923
3.73079
3.72285
3.7154
3.70847
3.70205
3.69616
3.69083
3.68606
3.68187
3.67824
3.67513
3.67254
3.67046
3.66884
3.66767
3.66691
3.66655
3.66659
3.66701
3.66785
3.66911
3.67085
3.67309
3.67591
3.67938
3.68364
3.68882
3.69506
3.70246
3.71086
3.71963
3.7274
3.73216
6.24999
3.97175
3.86927
3.13047
3.75799
3.92663
3.94465
3.92067
3.8826
3.83777
3.78945
3.74053
3.6934
3.64966
3.61006
3.57467
3.54316
3.515
3.48959
3.46657
3.44558
3.42615
3.40803
3.39112
3.37531
3.36053
3.3467
3.33378
3.32173
3.31054
3.30019
3.29066
3.28197
3.27412
3.2671
3.26091
3.25555
3.25096
3.24713
3.24403
3.24161
3.23983
3.23865
3.23804
3.238
3.23849
3.23956
3.24122
3.24354
3.24655
3.25036
3.25509
3.26091
3.26803
3.27666
3.28693
3.29863
3.3109
3.3218
3.3285
6.24997
3.98175
4.06425
3.75799
2.91157
3.28528
3.42889
3.47958
3.48884
3.47428
3.44322
3.40211
3.35601
3.30908
3.26402
3.22236
3.18463
3.15078
3.1204
3.0933
3.06913
3.04704
3.02665
3.00781
2.99033
2.97411
2.95901
2.94497
2.93192
2.91981
2.90863
2.89834
2.88893
2.88039
2.87271
2.86589
2.85991
2.85477
2.85042
2.84686
2.84405
2.84193
2.84047
2.83963
2.83939
2.83974
2.84067
2.84222
2.84444
2.84738
2.85111
2.85575
2.86147
2.86845
2.87684
2.88671
2.89776
2.9091
2.91896
2.92491
6.24996
3.98191
4.08921
3.92663
3.28529
2.50592
2.7754
2.93018
3.01595
3.05657
3.06542
3.05252
3.02504
2.98972
2.95105
2.91228
2.87528
2.84095
2.80955
2.78115
2.75554
2.73213
2.71063
2.69081
2.67247
2.6555
2.63974
2.62511
2.61153
2.59893
2.58727
2.57654
2.56668
2.55768
2.54953
2.54222
2.53575
2.53012
2.5253
2.52128
2.51807
2.51557
2.5138
2.51266
2.51218
2.51231
2.51303
2.51441
2.51644
2.51918
2.5227
2.5271
2.53249
2.53903
2.54678
2.5557
2.56537
2.57491
2.58284
2.58747
6.24994
3.98247
4.08158
3.94465
3.42889
2.7754
2.16924
2.3922
2.54158
2.63556
2.68777
2.70902
2.70797
2.69241
2.66756
2.63811
2.60706
2.57627
2.54681
2.51928
2.49377
2.47016
2.44832
2.42806
2.40925
2.39183
2.37562
2.36055
2.34655
2.33354
2.32148
2.31033
2.30005
2.29062
2.28201
2.27421
2.26724
2.2611
2.25578
2.25128
2.24762
2.2447
2.24257
2.24111
2.24035
2.24022
2.24073
2.24189
2.24374
2.24628
2.2496
2.25375
2.25883
2.26491
2.27198
2.27986
2.28804
2.29561
2.30149
2.30469
6.24992
3.98075
4.06271
3.92067
3.47958
2.93018
2.3922
1.91761
2.10277
2.23497
2.32312
2.37613
2.40226
2.40875
2.40161
2.38552
2.36428
2.34043
2.31571
2.29125
2.26764
2.24514
2.22391
2.20393
2.18519
2.16768
2.1513
2.13601
2.12174
2.10842
2.09605
2.08455
2.0739
2.06407
2.05504
2.04678
2.03934
2.0327
2.02688
2.0219
2.01777
2.01442
2.0119
2.0101
2.00904
2.00864
2.00893
2.00987
2.01152
2.01388
2.01699
2.02091
2.02568
2.03131
2.03771
2.04456
2.05126
2.05694
2.06086
2.06273
6.2499
3.97761
4.03895
3.8826
3.48884
3.01596
2.54158
2.10278
1.71756
1.86964
1.98192
2.05976
2.10939
2.13688
2.14778
2.14666
2.13744
2.12284
2.10511
2.08574
2.06577
2.04582
2.02634
2.00752
1.98955
1.9725
1.95636
1.94115
1.92687
1.91344
1.90089
1.88918
1.87826
1.86812
1.85873
1.85009
1.84222
1.83513
1.82887
1.82343
1.81885
1.81509
1.81217
1.81002
1.80864
1.80797
1.80802
1.80873
1.81018
1.81234
1.81523
1.81892
1.82337
1.82854
1.83426
1.8401
1.84537
1.8493
1.85144
1.85215
6.24988
3.97379
4.01253
3.83777
3.47429
3.05658
2.63556
2.23497
1.86964
1.54769
1.67216
1.76632
1.83377
1.87889
1.90613
1.91957
1.92275
1.91853
1.90916
1.89637
1.88146
1.86537
1.84877
1.83207
1.81564
1.79968
1.78427
1.76957
1.75557
1.7423
1.72978
1.71802
1.70697
1.69661
1.68698
1.67803
1.66982
1.66234
1.65568
1.64983
1.64484
1.64069
1.63738
1.63489
1.6332
1.63225
1.63204
1.63253
1.63375
1.63569
1.63837
1.64179
1.6459
1.6506
1.65562
1.66046
1.66439
1.66671
1.66733
1.66706
6.24986
3.96962
3.98522
3.78945
3.44322
3.06542
2.68778
2.32312
1.98192
1.67216
1.39829
1.50066
1.57978
1.63812
1.6849
1.72809
1.75878
1.7797
1.79307
1.80075
1.80415
1.80444
1.80244
1.79884
1.79416
1.78874
1.78283
1.7767
1.7704
1.7641
1.75779
1.75159
1.74544
1.73941
1.73354
1.72782
1.72236
1.71712
1.71233
1.70795
1.70406
1.70063
1.69766
1.69514
1.69304
1.69134
1.68997
1.68884
1.68798
1.68733
1.68687
1.68657
1.6863
1.68597
1.68534
1.68417
1.68221
1.67947
1.67649
1.67441
6.24984
3.9654
3.95852
3.74053
3.40212
3.05253
2.70902
2.37613
2.05976
1.76632
1.50066
1.41382
1.53106
1.62671
1.70258
1.76121
1.80531
1.83752
1.86014
1.87516
1.88423
1.88867
1.88956
1.88777
1.884
1.87881
1.87256
1.86566
1.85824
1.85058
1.84278
1.83494
1.82706
1.81929
1.8117
1.80426
1.79715
1.79029
1.78402
1.77826
1.77313
1.76861
1.76468
1.76137
1.75864
1.75644
1.75473
1.75343
1.75249
1.75191
1.75163
1.75161
1.75169
1.7517
1.75134
1.75026
1.74812
1.74495
1.7414
1.73892
6.24983
3.96139
3.93349
3.6934
3.35601
3.02504
2.70797
2.40226
2.10939
1.83377
1.57978
1.53106
1.48792
1.59933
1.69142
1.76562
1.82399
1.86881
1.90227
1.92638
1.94287
1.95321
1.95866
1.96019
1.95869
1.95485
1.94922
1.94231
1.9344
1.92587
1.91687
1.90759
1.89813
1.88865
1.87934
1.87011
1.86127
1.8527
1.84485
1.83761
1.83112
1.8254
1.82041
1.81619
1.81275
1.80999
1.80787
1.80635
1.80532
1.80476
1.80464
1.80488
1.80528
1.80559
1.80542
1.80431
1.80188
1.79816
1.79398
1.79107
6.24981
3.95771
3.91065
3.64966
3.30907
2.98971
2.6924
2.40874
2.13687
1.87889
1.63812
1.62671
1.59933
1.55007
1.6564
1.74532
1.81797
1.876
1.92131
1.95577
1.9811
1.99883
2.01029
2.0166
2.01872
2.01749
2.01359
2.00759
1.99995
1.99114
1.98139
1.97098
1.96015
1.94908
1.93808
1.92707
1.91643
1.9061
1.89655
1.88775
1.87982
1.87279
1.86663
1.86143
1.85719
1.85381
1.85122
1.84943
1.8483
1.84772
1.84774
1.84822
1.84892
1.8495
1.84945
1.84821
1.84539
1.84105
1.8362
1.83286
6.2498
3.95437
3.89011
3.61006
3.26401
2.95104
2.66755
2.4016
2.14777
1.90613
1.6849
1.70259
1.69142
1.6564
1.60256
1.70444
1.79053
1.86169
1.91927
1.96486
2.00005
2.02634
2.04507
2.05742
2.06444
2.06704
2.06597
2.06192
2.05542
2.04702
2.0371
2.02601
2.0141
2.00166
1.98905
1.97629
1.96385
1.95171
1.94041
1.92996
1.92048
1.91208
1.90468
1.8984
1.89329
1.88924
1.88613
1.88404
1.8828
1.88218
1.88232
1.88305
1.88403
1.88485
1.88485
1.88342
1.88015
1.87513
1.86963
1.86588
6.24979
3.95136
3.87167
3.57467
3.22236
2.91227
2.63811
2.38552
2.14666
1.91957
1.7281
1.76121
1.76563
1.74533
1.70444
1.64716
1.7451
1.8286
1.89831
1.95534
2.00101
2.03668
2.06365
2.08311
2.09613
2.10365
2.10652
2.10543
2.101
2.09382
2.08439
2.07309
2.06049
2.04696
2.03288
2.01848
2.00425
1.99031
1.97725
1.96509
1.95403
1.94419
1.93547
1.92805
1.92203
1.91726
1.91359
1.91118
1.90982
1.90917
1.90943
1.91041
1.91168
1.91272
1.91274
1.91108
1.90732
1.90162
1.89551
1.89137
6.24977
3.94862
3.85502
3.54317
3.18464
2.87528
2.60706
2.36428
2.13745
1.92276
1.75879
1.80532
1.824
1.81798
1.79053
1.74511
1.68522
1.77962
1.86071
1.92899
1.98535
2.03089
2.06678
2.09416
2.11409
2.1275
2.13525
2.13809
2.13665
2.13151
2.12325
2.11232
2.09945
2.0852
2.07008
2.0543
2.0385
2.02292
2.00814
1.9943
1.98166
1.97025
1.96013
1.95151
1.94447
1.93888
1.93451
1.93167
1.93009
1.92943
1.92982
1.93108
1.93268
1.93395
1.93399
1.93209
1.92782
1.92147
1.91478
1.91031
6.24976
3.94608
3.83981
3.51499
3.15077
2.84094
2.57626
2.34042
2.12285
1.91855
1.7797
1.83752
1.86882
1.87601
1.8617
1.8286
1.77962
1.71774
1.8089
1.88771
1.95455
2.01012
2.05534
2.0912
2.1187
2.13878
2.15224
2.15983
2.16217
2.15985
2.15342
2.1437
2.13131
2.11699
2.10134
2.08463
2.06759
2.0506
2.03425
2.01873
2.00447
1.99145
1.97989
1.96997
1.96182
1.95528
1.95012
1.94672
1.94478
1.944
1.94437
1.94576
1.94761
1.94917
1.94926
1.94716
1.94238
1.93544
1.92824
1.92348
6.24975
3.94369
3.82575
3.48959
3.12041
2.80955
2.54682
2.31572
2.10511
1.90916
1.79307
1.86014
1.90229
1.92132
1.91929
1.89832
1.86071
1.8089
1.74548
1.83364
1.91027
1.97562
2.03024
2.0749
2.11045
2.13776
2.1576
2.17062
2.17743
2.17867
2.17507
2.16745
2.1564
2.14278
2.12713
2.11006
2.09217
2.07399
2.05629
2.03926
2.02346
2.00885
1.99574
1.98444
1.97508
1.96746
1.9614
1.9573
1.95485
1.95379
1.954
1.95535
1.95726
1.9589
1.95907
1.95681
1.95159
1.94414
1.93651
1.9315
6.24974
3.94145
3.81268
3.46657
3.09332
2.78116
2.51929
2.29128
2.08577
1.89639
1.80077
1.87519
1.9264
1.95578
1.96488
1.95536
1.929
1.88772
1.83364
1.76902
1.85434
1.92882
1.99258
2.04608
2.08994
2.12485
2.15152
2.17054
2.18249
2.18814
2.18825
2.18359
2.17476
2.16258
2.1477
2.13088
2.11267
2.09371
2.07491
2.05656
2.03927
2.02317
2.00847
1.99572
1.98512
1.97622
1.96917
1.96423
1.9611
1.95958
1.95949
1.96059
1.96234
1.96384
1.96389
1.96147
1.95592
1.94805
1.94005
1.93488
6.24973
3.93932
3.80048
3.44558
3.06913
2.75555
2.49379
2.26767
2.06578
1.88149
1.80418
1.88425
1.94289
1.98111
2.00006
2.00102
1.98535
1.95455
1.91026
1.85433
1.78872
1.8713
1.94359
2.00566
2.05782
2.10053
2.13436
2.1598
2.17758
2.18841
2.19301
2.19209
2.18631
2.17646
2.16311
2.14727
2.12932
2.11005
2.09058
2.07117
2.05251
2.03503
2.01876
2.00452
1.99253
1.98226
1.97406
1.96816
1.96419
1.96204
1.96142
1.9621
1.96347
1.96461
1.96432
1.96155
1.9557
1.94754
1.93927
1.93396
6.24972
3.93727
3.78893
3.42615
3.04704
2.73214
2.47017
2.24515
2.04582
1.86538
1.80443
1.88867
1.95322
1.99883
2.02634
2.03668
2.03089
2.01011
1.9756
1.92879
1.87128
1.80486
1.88472
1.95474
2.0149
2.06539
2.10653
2.13884
2.16297
2.17958
2.18934
2.19291
2.19094
2.18417
2.17318
2.15899
2.14195
2.12307
2.10339
2.08337
2.06353
2.04477
2.02714
2.01139
1.99786
1.98607
1.97665
1.96959
1.9646
1.96164
1.96032
1.96037
1.96114
1.9617
1.96085
1.95756
1.95131
1.94287
1.93443
1.92908
6.24971
3.93528
3.77794
3.40803
3.02666
2.71064
2.44832
2.22392
2.02634
1.84876
1.80244
1.88956
1.95866
2.01029
2.04507
2.06364
2.06678
2.05533
2.03023
1.99255
1.94356
1.88469
1.81751
1.89461
1.96219
2.02017
2.0687
2.10813
2.13899
2.16185
2.17732
2.18599
2.18847
2.18547
2.17763
2.16579
2.15043
2.13266
2.11332
2.0931
2.07248
2.05264
2.03376
2.01669
2.00153
1.98824
1.9774
1.96899
1.96284
1.95885
1.95662
1.95581
1.95576
1.95553
1.95393
1.94997
1.94321
1.93446
1.92586
1.92047
6.2497
3.93337
3.76749
3.39112
3.00781
2.69081
2.42806
2.20393
2.00752
1.83207
1.79885
1.88778
1.9602
2.01661
2.05743
2.08311
2.09416
2.09118
2.07488
2.04605
2.00562
1.95471
1.89461
1.82667
1.90087
1.96587
2.02161
2.06822
2.10601
2.13544
2.15702
2.1713
2.17881
2.1802
2.17617
2.16735
2.15442
2.13838
2.12006
2.10027
2.0795
2.05886
2.03893
2.02059
2.00385
1.98917
1.97679
1.96686
1.95929
1.95406
1.95069
1.94879
1.9477
1.94647
1.94392
1.93916
1.93183
1.92272
1.91396
1.90857
6.2497
3.93152
3.75757
3.37531
2.99033
2.67246
2.40925
2.1852
1.98957
1.81565
1.79417
1.88402
1.9587
2.01873
2.06445
2.09613
2.11409
2.11869
2.11045
2.08992
2.0578
2.01488
1.9622
1.90085
1.83223
1.90355
1.96609
2.01969
2.06444
2.10062
2.12859
2.14884
2.16185
2.16816
2.16847
2.16338
2.15361
2.14005
2.12339
2.10461
2.08434
2.0635
2.04282
2.02323
2.00512
1.98894
1.97508
1.96347
1.95433
1.9476
1.94282
1.93962
1.93727
1.93483
1.93116
1.92548
1.91751
1.90802
1.89913
1.89374
6.24969
3.92975
3.74815
3.36053
2.9741
2.6555
2.39183
2.16769
1.97251
1.79969
1.78876
1.87882
1.95487
2.01751
2.06706
2.10367
2.12751
2.13878
2.13776
2.12485
2.10051
2.06539
2.02017
1.96586
1.90355
1.83449
1.90315
1.96332
2.01484
2.05775
2.09226
2.11872
2.13751
2.14921
2.15436
2.15364
2.14764
2.13719
2.12298
2.10584
2.08658
2.06611
2.04508
2.02474
2.00543
1.98785
1.97238
1.95916
1.94819
1.93977
1.93331
1.92857
1.92476
1.92089
1.91596
1.90924
1.90058
1.8907
1.8817
1.87633
6.24968
3.92804
3.73923
3.3467
2.95901
2.63974
2.37562
2.15131
1.95636
1.78428
1.78285
1.87258
1.94925
2.0136
2.06598
2.10653
2.13527
2.15225
2.1576
2.15152
2.13435
2.10652
2.06869
2.02158
1.96607
1.90315
1.83391
1.9
1.95787
2.0073
2.04833
2.08113
2.10603
2.12348
2.13397
2.13801
2.13627
2.12945
2.11831
2.10351
2.08592
2.06649
2.0457
2.02495
2.00475
1.98579
1.9688
1.95397
1.94116
1.93078
1.92245
1.91593
1.9104
1.90494
1.89859
1.89074
1.88134
1.87108
1.86198
1.85663
6.24967
3.92641
3.73079
3.33378
2.94497
2.62511
2.36056
2.13602
1.94117
1.76958
1.77671
1.86565
1.94231
2.00761
2.06193
2.10544
2.1381
2.15984
2.17063
2.17055
2.15981
2.13884
2.10812
2.06817
2.01965
1.9633
1.89999
1.83071
1.89431
1.94988
1.99726
2.03646
2.06768
2.0912
2.10737
2.11663
2.1195
2.11679
2.10915
2.09729
2.08199
2.06406
2.04427
2.02357
2.00287
1.98291
1.96459
1.94799
1.9333
1.92084
1.91044
1.90192
1.89447
1.88721
1.87931
1.87024
1.86004
1.84939
1.8402
1.83489
6.24966
3.92486
3.72285
3.32173
2.93191
2.61152
2.34653
2.12172
1.92685
1.75556
1.77041
1.85826
1.93443
1.99999
2.05546
2.10103
2.13668
2.16219
2.17746
2.18251
2.1776
2.16298
2.13899
2.10599
2.06442
2.01482
1.95785
1.89429
1.8251
1.88626
1.93967
1.98519
2.02276
2.0525
2.07461
2.08945
2.09746
2.09923
2.09548
2.08692
2.07427
2.05848
2.04014
2.02029
1.99961
1.97899
1.95942
1.94118
1.92462
1.91006
1.89747
1.88675
1.87716
1.86793
1.85836
1.84802
1.83697
1.82592
1.81662
1.81136
6.24965
3.92339
3.7154
3.31054
2.91981
2.59892
2.33353
2.10843
1.91345
1.74231
1.7641
1.85061
1.92589
1.99114
2.04705
2.09388
2.13155
2.15988
2.17871
2.18818
2.18843
2.1796
2.16185
2.13543
2.1006
2.05773
2.00727
1.94986
1.88625
1.81736
1.8763
1.92779
1.97155
2.00754
2.03573
2.05641
2.0699
2.07665
2.07724
2.07241
2.06293
2.04952
2.03305
2.01445
1.99444
1.9737
1.95331
1.93357
1.91522
1.89863
1.88369
1.87058
1.8587
1.84736
1.83598
1.82429
1.81234
1.80091
1.79148
1.78628
6.24965
3.922
3.70846
3.30018
2.90862
2.58727
2.32147
2.09604
1.90089
1.72979
1.75781
1.84281
1.91691
1.98141
2.03714
2.08444
2.12332
2.15352
2.17517
2.18832
2.19304
2.18935
2.17733
2.15702
2.12859
2.09226
2.04832
1.99725
1.93966
1.87629
1.80795
1.8649
1.91454
1.95659
1.99087
2.01752
2.03671
2.04881
2.05425
2.05363
2.04774
2.03725
2.02294
2.00587
1.98686
1.96655
1.94571
1.92503
1.90498
1.88644
1.86921
1.85358
1.83926
1.8257
1.81244
1.7993
1.78647
1.77458
1.76502
1.75984
6.24964
3.92071
3.70204
3.29066
2.89833
2.57653
2.31031
2.08454
1.88917
1.71801
1.7516
1.83496
1.90761
1.97101
2.02607
2.07319
2.11243
2.1438
2.16752
2.18362
2.1921
2.19293
2.186
2.17131
2.14884
2.1187
2.0811
2.03644
1.98517
1.92776
1.8649
1.79724
1.85224
1.89999
1.94021
1.97281
1.99788
2.01555
2.02625
2.0303
2.02846
2.02138
2.00981
1.9947
1.97686
1.95722
1.93639
1.91509
1.89382
1.87345
1.85398
1.83587
1.81906
1.80319
1.78797
1.77334
1.75953
1.74715
1.73749
1.73224
6.24963
3.91952
3.69616
3.28197
2.88892
2.56667
2.30004
2.0739
1.87826
1.70698
1.74549
1.82711
1.89817
1.9602
2.0142
2.06063
2.09962
2.13148
2.15657
2.1749
2.1864
2.19097
2.1885
2.17882
2.16184
2.1375
2.106
2.06764
2.02273
1.97155
1.91454
1.85219
1.78528
1.83825
1.88406
1.92248
1.95343
1.97686
1.99301
2.00218
2.00479
2.00162
1.9933
1.98066
1.96452
1.94575
1.92512
1.90357
1.88149
1.85956
1.83809
1.8176
1.7983
1.78007
1.76282
1.74665
1.7318
1.71893
1.70916
1.70381
6.24963
3.91843
3.69082
3.27411
2.88038
2.55767
2.29061
2.06406
1.86811
1.69661
1.73944
1.81933
1.88871
1.94917
2.00177
2.04714
2.0854
2.1172
2.14291
2.16274
2.17657
2.18423
2.18553
2.18025
2.16817
2.1492
2.12346
2.09117
2.05246
2.00752
1.95657
1.89996
1.83824
1.77204
1.82299
1.86693
1.90357
1.93273
1.9545
1.96899
1.97654
1.97761
1.973
1.96334
1.94942
1.93201
1.91204
1.89037
1.86772
1.84466
1.82151
1.79886
1.77717
1.7566
1.73729
1.71949
1.70356
1.69017
1.68017
1.67475
6.24962
3.91745
3.68606
3.26709
2.8727
2.54952
2.282
2.05503
1.85874
1.68699
1.73357
1.81172
1.87936
1.93809
1.98905
2.03289
2.07009
2.10138
2.12719
2.14779
2.16324
2.17325
2.17766
2.17619
2.16846
2.15435
2.13396
2.10734
2.07458
2.03571
1.99084
1.94017
1.88406
1.82302
1.75759
1.80659
1.84867
1.88341
1.91075
1.93065
1.94339
1.94917
1.94863
1.94244
1.93124
1.91577
1.89695
1.87559
1.85258
1.82864
1.80419
1.77971
1.75581
1.73299
1.71162
1.69224
1.67519
1.66112
1.6508
1.6454
6.24962
3.91658
3.68186
3.2609
2.86588
2.54221
2.27421
2.04678
1.85009
1.67804
1.72783
1.80426
1.87011
1.92707
1.97628
2.01848
2.05432
2.08461
2.11001
2.13085
2.14719
2.15894
2.16571
2.16733
2.16339
2.15366
2.13802
2.11662
2.08943
2.05639
2.0175
1.9728
1.9225
1.86697
1.80664
1.74199
1.78898
1.82907
1.8619
1.88723
1.90523
1.91608
1.91998
1.91767
1.90967
1.89666
1.8795
1.859
1.83604
1.81149
1.78602
1.76013
1.73436
1.70948
1.68615
1.66517
1.64697
1.63217
1.62151
1.61596
6.24962
3.91583
3.67823
3.25554
2.8599
2.53574
2.26723
2.03933
1.84222
1.66982
1.72235
1.79713
1.86124
1.9164
1.96384
2.00425
2.03856
2.06763
2.09227
2.11285
2.12947
2.1421
2.15053
2.15456
2.15373
2.14768
2.13628
2.11949
2.09743
2.06988
2.0367
1.99787
1.95346
1.90363
1.84872
1.78906
1.72515
1.77012
1.8081
1.83877
1.86205
1.87812
1.88687
1.88873
1.88439
1.87434
1.85939
1.84029
1.81794
1.79323
1.76702
1.74005
1.71289
1.68628
1.6612
1.63866
1.61929
1.60363
1.59261
1.58687
6.24961
3.91516
3.67512
3.25094
2.85475
2.5301
2.26109
2.03269
1.83513
1.66234
1.71715
1.79033
1.85276
1.90618
1.95183
1.99044
2.02304
2.0507
2.07422
2.09395
2.11024
2.12313
2.13257
2.1383
2.13994
2.13707
2.12937
2.11674
2.09917
2.0766
2.04878
2.01554
1.97685
1.93273
1.88341
1.82905
1.77005
1.7069
1.74967
1.78548
1.81401
1.83525
1.84904
1.85544
1.85517
1.84858
1.83637
1.81921
1.79806
1.77377
1.74729
1.71952
1.69141
1.66349
1.63689
1.61296
1.59247
1.57597
1.56445
1.55845
6.24961
3.9146
3.67253
3.24712
2.85042
2.52529
2.25578
2.02688
1.82886
1.65568
1.71234
1.78403
1.84486
1.8966
1.94049
1.97736
2.00829
2.0344
2.05646
2.07513
2.09068
2.10338
2.11319
2.11992
2.12324
2.12284
2.11822
2.10904
2.09539
2.07716
2.05417
2.02617
1.99295
1.95445
1.91071
1.8618
1.80798
1.74961
1.68718
1.72774
1.76136
1.78764
1.80639
1.81777
1.82176
1.8191
1.81018
1.7956
1.77624
1.75297
1.72678
1.6987
1.66991
1.6412
1.61356
1.58845
1.56696
1.54968
1.53764
1.53145
6.24961
3.91415
3.67044
3.244
2.84684
2.52127
2.25128
2.0219
1.82343
1.64984
1.70798
1.7783
1.83765
1.88779
1.93
1.96513
1.99433
2.01874
2.03926
2.05661
2.07126
2.08334
2.09291
2.09995
2.10431
2.10553
2.10324
2.09703
2.08672
2.07229
2.05352
2.03019
2.00208
1.96889
1.93054
1.88711
1.83867
1.78534
1.72765
1.66593
1.70419
1.73534
1.75914
1.77546
1.78415
1.78568
1.78063
1.76917
1.75219
1.73062
1.70536
1.67754
1.64853
1.61942
1.59131
1.56547
1.54309
1.5252
1.5127
1.5063
6.24961
3.91379
3.66882
3.24159
2.84404
2.51807
2.24762
2.01778
1.81886
1.64485
1.70406
1.77312
1.8311
1.87977
1.92041
1.95393
1.98149
2.00426
2.02321
2.03909
2.05244
2.06355
2.07254
2.07941
2.084
2.08621
2.08557
2.08163
2.07405
2.06274
2.04757
2.02831
2.00465
1.97639
1.94323
1.90505
1.86192
1.81383
1.76116
1.70407
1.64298
1.67874
1.70732
1.7285
1.7422
1.74837
1.74741
1.73971
1.72574
1.70652
1.68289
1.656
1.62744
1.59833
1.57016
1.54417
1.52132
1.50292
1.49006
1.4835
6.24961
3.91354
3.66765
3.2398
2.84192
2.51557
2.24471
2.01444
1.81511
1.6407
1.70063
1.76861
1.8254
1.87279
1.91206
1.94411
1.97013
1.99136
2.0088
2.02308
2.03492
2.04458
2.05242
2.05864
2.06317
2.06583
2.06619
2.06378
2.05827
2.04934
2.03706
2.02121
2.00145
1.97744
1.949
1.91587
1.87788
1.83495
1.78738
1.7352
1.67867
1.61816
1.65127
1.67735
1.69595
1.70692
1.71044
1.70695
1.69664
1.68045
1.65917
1.6341
1.60661
1.5782
1.55033
1.52439
1.50152
1.48315
1.47019
1.46337
6.2496
3.91337
3.66688
3.23861
2.84043
2.51376
2.24253
2.01189
1.81217
1.63739
1.69768
1.76472
1.82046
1.8667
1.90477
1.93555
1.96019
1.97994
1.99582
2.00863
2.01897
2.02723
2.03385
2.03917
2.04302
2.04529
2.04581
2.04431
2.0401
2.03295
2.02281
2.00966
1.99312
1.97282
1.94844
1.91973
1.88658
1.84872
1.80617
1.75905
1.70735
1.65142
1.59153
1.62211
1.64548
1.66144
1.66987
1.67073
1.6647
1.65232
1.63422
1.6115
1.58585
1.55865
1.5317
1.50612
1.48377
1.46562
1.45268
1.44607
6.2496
3.91329
3.66653
3.23801
2.8396
2.51264
2.24109
2.01009
1.81001
1.63488
1.69517
1.76142
1.81627
1.86154
1.89856
1.92824
1.95173
1.97021
1.98475
1.99607
2.00482
2.01164
2.0169
2.0209
2.02366
2.02521
2.02539
2.02388
2.02034
2.01441
2.00581
1.99459
1.98048
1.96318
1.94226
1.91747
1.8885
1.85524
1.81761
1.77537
1.72864
1.67747
1.62212
1.56292
1.59096
1.61197
1.62549
1.63122
1.62987
1.62173
1.6075
1.58818
1.56496
1.53977
1.51425
1.48975
1.46809
1.45036
1.43773
1.43116
6.2496
3.9133
3.66657
3.23797
2.83936
2.51215
2.24031
2.009
1.80861
1.63317
1.69306
1.75867
1.8128
1.85727
1.89342
1.92218
1.94464
1.96201
1.9753
1.98532
1.99276
1.99812
2.00183
2.00423
2.00549
2.00582
2.00518
2.00339
2.00002
1.99466
1.98694
1.97683
1.96441
1.94927
1.93107
1.90947
1.88418
1.85495
1.8216
1.78406
1.74226
1.69594
1.64541
1.59092
1.53264
1.55844
1.57705
1.58811
1.5918
1.58848
1.57884
1.56359
1.54373
1.5214
1.49785
1.47495
1.45433
1.43725
1.42498
1.41866
6.2496
3.91339
3.66699
3.23847
2.83971
2.51229
2.2402
2.00862
1.80795
1.63223
1.69137
1.75648
1.81004
1.85388
1.88933
1.91738
1.93901
1.95545
1.96767
1.97646
1.9825
1.98631
1.98848
1.98939
1.98915
1.98801
1.98606
1.98327
1.97943
1.97397
1.96664
1.95724
1.94568
1.93191
1.91564
1.89648
1.87414
1.84838
1.81892
1.78548
1.7482
1.70676
1.66121
1.61162
1.5583
1.50135
1.52496
1.54144
1.5505
1.55242
1.54789
1.53735
1.5217
1.50276
1.48201
1.46139
1.44223
1.42639
1.41494
1.40895
6.24961
3.91357
3.66783
3.23954
2.84064
2.51301
2.24071
2.00891
1.808
1.63203
1.68999
1.75476
1.80792
1.85128
1.88621
1.91369
1.93465
1.95027
1.96157
1.96935
1.97428
1.9769
1.97764
1.97702
1.97521
1.9726
1.96918
1.96497
1.95985
1.9536
1.94588
1.93648
1.92514
1.91201
1.89685
1.87933
1.85919
1.83614
1.80988
1.78023
1.74709
1.7102
1.66955
1.62505
1.57682
1.52486
1.46916
1.49095
1.50565
1.51343
1.51429
1.50899
1.49824
1.48352
1.46646
1.44845
1.43169
1.41736
1.40675
1.40145
6.24961
3.91385
3.6691
3.2412
2.84219
2.51437
2.24187
2.00985
1.80872
1.63251
1.68885
1.75345
1.80638
1.84947
1.88409
1.91125
1.93176
1.94683
1.95741
1.96434
1.96828
1.96971
1.96915
1.967
1.96364
1.95918
1.95395
1.94808
1.94135
1.93379
1.92509
1.91517
1.9036
1.89037
1.87553
1.85886
1.84009
1.81897
1.79524
1.76877
1.73925
1.7066
1.67052
1.6309
1.58789
1.54128
1.49077
1.43691
1.45724
1.47087
1.47747
1.47788
1.4726
1.46299
1.45018
1.4358
1.42168
1.40933
1.40014
1.39565
6.24961
3.91422
3.67084
3.24352
2.84441
2.51642
2.24371
2.0115
1.81016
1.63373
1.68799
1.75251
1.80534
1.84832
1.88282
1.90984
1.93011
1.94481
1.95489
1.96117
1.96429
1.96474
1.96304
1.95957
1.95463
1.94845
1.9414
1.93349
1.92477
1.91533
1.90507
1.89389
1.8815
1.86768
1.8525
1.8359
1.81774
1.79781
1.77592
1.75187
1.72545
1.6964
1.66456
1.62971
1.59165
1.55036
1.50541
1.45711
1.4055
1.42486
1.43754
1.44402
1.44472
1.44042
1.43245
1.42224
1.41134
1.4017
1.39432
1.3906
6.24961
3.9147
3.67308
3.24653
2.84735
2.51916
2.24627
2.01387
1.81233
1.63568
1.68735
1.75192
1.80477
1.84773
1.88219
1.90919
1.92945
1.94401
1.95381
1.95961
1.96204
1.96166
1.9589
1.95415
1.94778
1.93997
1.93094
1.92095
1.91018
1.8987
1.88645
1.8734
1.8595
1.84459
1.82851
1.8113
1.79301
1.7735
1.75266
1.73032
1.70622
1.68021
1.65212
1.62166
1.58841
1.55243
1.51319
1.47059
1.42469
1.37553
1.39417
1.40685
1.41384
1.41538
1.41279
1.40732
1.40032
1.39368
1.38819
1.38532
6.24962
3.91531
3.67589
3.25034
2.85109
2.52268
2.24958
2.01697
1.81523
1.63836
1.68689
1.75164
1.80465
1.84775
1.88233
1.90944
1.92983
1.94439
1.95403
1.95952
1.96147
1.96037
1.9567
1.95078
1.94291
1.93344
1.92261
1.91065
1.89763
1.88376
1.86916
1.85389
1.83798
1.82141
1.80404
1.78582
1.76679
1.74702
1.72651
1.70514
1.68269
1.659
1.6341
1.60741
1.57876
1.54774
1.51386
1.47718
1.43745
1.3942
1.34787
1.36661
1.37963
1.38737
1.39054
1.39016
1.38768
1.38419
1.3811
1.37906
6.24962
3.91605
3.67937
3.25507
2.85573
2.52708
2.25374
2.0209
1.81891
1.64179
1.68658
1.75161
1.80488
1.84823
1.88306
1.91042
1.9311
1.94578
1.95537
1.96062
1.96214
1.96042
1.95587
1.94887
1.93973
1.92873
1.91608
1.90206
1.88689
1.87069
1.85364
1.83587
1.81757
1.7988
1.77959
1.75995
1.73985
1.71933
1.69852
1.67742
1.65588
1.63399
1.61157
1.58812
1.56327
1.53695
1.50855
1.47745
1.44372
1.4067
1.36662
1.32326
1.34245
1.35643
1.36539
1.37024
1.37237
1.37247
1.37187
1.37108
6.24962
3.91694
3.68363
3.2609
2.86146
2.53249
2.25882
2.02567
1.82336
1.6459
1.6863
1.75168
1.80527
1.84892
1.88403
1.91168
1.93268
1.94761
1.95726
1.96236
1.96349
1.96118
1.95581
1.94776
1.93734
1.92485
1.9105
1.89456
1.87724
1.85874
1.83928
1.81905
1.79827
1.7771
1.7557
1.73422
1.71273
1.69122
1.6697
1.64845
1.6274
1.60666
1.58593
1.56507
1.54361
1.52132
1.49784
1.47217
1.4442
1.41348
1.37958
1.34242
1.30209
1.32196
1.33691
1.34708
1.35377
1.35779
1.35987
1.36057
6.24963
3.91802
3.68881
3.26802
2.86843
2.53902
2.2649
2.0313
1.82854
1.65059
1.68596
1.75169
1.80558
1.84949
1.88484
1.91271
1.93394
1.94916
1.95888
1.96383
1.96459
1.96169
1.95553
1.94648
1.93484
1.92091
1.90496
1.88724
1.86796
1.84738
1.82571
1.80319
1.78005
1.75655
1.73293
1.70939
1.68614
1.66333
1.64109
1.61936
1.59831
1.5782
1.55875
1.53973
1.52106
1.50241
1.48313
1.46256
1.43998
1.41499
1.38718
1.35635
1.32198
1.28448
1.30493
1.32051
1.33184
1.33968
1.34435
1.34663
6.24964
3.9193
3.69506
3.27666
2.87684
2.54678
2.27197
2.0377
1.83425
1.65561
1.68532
1.75133
1.80541
1.84943
1.88483
1.91272
1.93397
1.94924
1.95904
1.96387
1.9643
1.96083
1.95391
1.94391
1.93116
1.91596
1.8986
1.87932
1.85839
1.83604
1.81247
1.78798
1.76283
1.73731
1.71167
1.68616
1.66115
1.63686
1.61359
1.59135
1.5702
1.55022
1.53152
1.51416
1.49757
1.48173
1.46605
1.44969
1.43199
1.41258
1.39036
1.36531
1.3369
1.30494
1.26984
1.29031
1.3063
1.31784
1.32528
1.32885
6.24964
3.92078
3.70246
3.28693
2.8867
2.55569
2.27985
2.04456
1.84009
1.66045
1.68415
1.75024
1.80429
1.84819
1.8834
1.91106
1.93207
1.94713
1.95679
1.96144
1.96152
1.95753
1.94993
1.93912
1.92544
1.90921
1.89072
1.87022
1.848
1.82429
1.79932
1.77337
1.74668
1.71956
1.69231
1.66526
1.63868
1.6129
1.58845
1.56561
1.54421
1.52429
1.50615
1.48974
1.47485
1.46138
1.44844
1.4355
1.42208
1.40725
1.39011
1.3702
1.34712
1.32058
1.29033
1.25682
1.27697
1.29197
1.30185
1.30674
6.24965
3.92241
3.71086
3.29864
2.89777
2.56538
2.28804
2.05126
1.84536
1.66438
1.68219
1.7481
1.80186
1.84537
1.88013
1.9073
1.92779
1.94234
1.95155
1.95586
1.95565
1.95125
1.94314
1.93174
1.91742
1.9005
1.88126
1.85997
1.83689
1.81228
1.7864
1.75947
1.73175
1.70356
1.67523
1.64704
1.61931
1.59241
1.56685
1.54311
1.52141
1.50163
1.4839
1.46823
1.45445
1.44252
1.43192
1.42179
1.4116
1.40043
1.38757
1.37238
1.35389
1.33191
1.30629
1.27687
1.2438
1.26181
1.27377
1.27999
6.24966
3.92406
3.71964
3.31092
2.90912
2.57492
2.29561
2.05694
1.84929
1.66671
1.67944
1.74491
1.79812
1.841
1.87508
1.90156
1.9214
1.93537
1.94406
1.94795
1.94742
1.94275
1.93434
1.92261
1.90792
1.89061
1.87099
1.84932
1.82584
1.80079
1.77447
1.7471
1.71893
1.69019
1.66117
1.63226
1.60373
1.57609
1.54981
1.52539
1.5032
1.48341
1.46594
1.45072
1.43769
1.42687
1.41788
1.40984
1.40218
1.39407
1.38443
1.37258
1.35778
1.33977
1.31778
1.29186
1.26168
1.22758
1.24136
1.24848
6.24967
3.92547
3.72742
3.32183
2.91898
2.58286
2.3015
2.06087
1.85145
1.66733
1.67644
1.74134
1.79391
1.83613
1.86956
1.89542
1.91469
1.92814
1.93641
1.93996
1.93918
1.93437
1.9258
1.91392
1.89911
1.88169
1.86195
1.84017
1.81656
1.79143
1.76502
1.73748
1.70912
1.68015
1.65091
1.62166
1.59279
1.56477
1.53795
1.513
1.49034
1.47042
1.45324
1.43826
1.42578
1.41567
1.40762
1.40108
1.39508
1.38893
1.38147
1.37205
1.35988
1.3444
1.32503
1.30169
1.27366
1.24139
1.20435
1.21203
6.24968
3.92632
3.73218
3.32853
2.92494
2.58748
2.3047
2.06274
1.85216
1.66706
1.67436
1.73886
1.79101
1.8328
1.86582
1.89129
1.91022
1.92338
1.93139
1.93476
1.93387
1.929
1.92042
1.90851
1.89368
1.87625
1.85653
1.83476
1.81122
1.78613
1.75975
1.73228
1.70391
1.67492
1.64562
1.61623
1.58723
1.55898
1.53192
1.50677
1.48387
1.4639
1.44667
1.43183
1.41946
1.40964
1.4023
1.3964
1.3914
1.38623
1.37983
1.37162
1.36076
1.34655
1.32869
1.30656
1.27973
1.2484
1.212
1.17056
)
;

boundaryField
{
    symmetry1
    {
        type            symmetryPlane;
    }
    symmetry2
    {
        type            symmetryPlane;
    }
    wall
    {
        type            calculated;
        value           nonuniform List<scalar> 
120
(
6.24968e+24
6.24967e+24
6.24966e+24
6.24965e+24
6.24964e+24
6.24964e+24
6.24963e+24
6.24962e+24
6.24962e+24
6.24962e+24
6.24961e+24
6.24961e+24
6.24961e+24
6.24961e+24
6.2496e+24
6.2496e+24
6.2496e+24
6.2496e+24
6.24961e+24
6.24961e+24
6.24961e+24
6.24961e+24
6.24961e+24
6.24962e+24
6.24962e+24
6.24962e+24
6.24963e+24
6.24963e+24
6.24964e+24
6.24965e+24
6.24965e+24
6.24966e+24
6.24967e+24
6.24968e+24
6.24969e+24
6.2497e+24
6.2497e+24
6.24971e+24