/*--------------------------------*- C++ -*----------------------------------*\
| =========                 |                                                 |
| \\      /  F ield         | OpenFOAM: The Open Source CFD Toolbox           |
|  \\    /   O peration     | Version:  2212                                  |
|   \\  /    A nd           | Website:  www.openfoam.com                      |
|    \\/     M anipulation  |                                                 |
\*---------------------------------------------------------------------------*/
FoamFile
{
    version     2.0;
    format      ascii;
    arch        "LSB;label=32;scalar=64";
    class       volScalarField;
    location    "1";
    object      theta5_Scaled_;
}
// * * * * * * * * * * * * * * * * * * * * * * * * * * * * * * * * * * * * * //

dimensions      [0 0 0 0 0 0 0];

internalField   nonuniform List<scalar> 
3600
(
-1.26219e-10
-3.01395e-09
-2.16975e-08
-8.72225e-08
-2.56911e-07
-6.20062e-07
-1.28618e-06
-2.34315e-06
-3.80965e-06
-5.6184e-06
-7.64741e-06
-9.76938e-06
-1.1891e-05
-1.39651e-05
-1.59835e-05
-1.79609e-05
-1.99204e-05
-2.18823e-05
-2.38606e-05
-2.58671e-05
-2.79053e-05
-2.9965e-05
-3.20376e-05
-3.41194e-05
-3.62042e-05
-3.82829e-05
-4.03445e-05
-4.23763e-05
-4.43652e-05
-4.62971e-05
-4.81572e-05
-4.99293e-05
-5.15964e-05
-5.31406e-05
-5.45459e-05
-5.58004e-05
-5.6898e-05
-5.78372e-05
-5.86199e-05
-5.92519e-05
-5.97404e-05
-6.00921e-05
-6.03137e-05
-6.04072e-05
-6.03706e-05
-6.02098e-05
-5.99104e-05
-5.94682e-05
-5.88755e-05
-5.81207e-05
-5.71877e-05
-5.60539e-05
-5.46887e-05
-5.30591e-05
-5.11337e-05
-4.89051e-05
-4.64329e-05
-4.39124e-05
-4.17333e-05
-4.04228e-05
-3.01395e-09
-3.02921e-06
-3.73587e-05
-0.000136201
-0.000369756
-0.000850977
-0.00170819
-0.00302161
-0.00478567
-0.00690481
-0.00923457
-0.0116352
-0.014009
-0.0163085
-0.0185266
-0.0206795
-0.022791
-0.024882
-0.0269667
-0.0290557
-0.0311516
-0.0332462
-0.0353322
-0.0374058
-0.0394613
-0.0414904
-0.0434831
-0.0454287
-0.0473161
-0.0491336
-0.0508691
-0.0525099
-0.0540424
-0.0554526
-0.0567285
-0.0578617
-0.0588488
-0.0596885
-0.0603858
-0.0609474
-0.0613804
-0.0616918
-0.0618879
-0.0619707
-0.0619389
-0.0617972
-0.0615333
-0.0611425
-0.0606176
-0.0599471
-0.0591153
-0.0580999
-0.0568707
-0.055394
-0.053636
-0.051583
-0.0492828
-0.0469131
-0.0448441
-0.0435907
-2.16975e-08
-3.73587e-05
-0.00229199
-0.014337
-0.0382028
-0.0763638
-0.129126
-0.19073
-0.253877
-0.312763
-0.364402
-0.408116
-0.444588
-0.475041
-0.500752
-0.522833
-0.542145
-0.559317
-0.574783
-0.588843
-0.601701
-0.613506
-0.624365
-0.634376
-0.643612
-0.652132
-0.659981
-0.667199
-0.673817
-0.679864
-0.685365
-0.690336
-0.694793
-0.698745
-0.702205
-0.705189
-0.707724
-0.70983
-0.711545
-0.712905
-0.713941
-0.714678
-0.715138
-0.715332
-0.715258
-0.714922
-0.714302
-0.713374
-0.712116
-0.710486
-0.708427
-0.705856
-0.702656
-0.698676
-0.693734
-0.687663
-0.680446
-0.67251
-0.665127
-0.660431
-8.72227e-08
-0.000136201
-0.014337
-0.174672
-0.436109
-0.598188
-0.688457
-0.743747
-0.780948
-0.807582
-0.827414
-0.842569
-0.854363
-0.863694
-0.871199
-0.877347
-0.882477
-0.88684
-0.890611
-0.893924
-0.89687
-0.899507
-0.90188
-0.904026
-0.90597
-0.907736
-0.909341
-0.910799
-0.912122
-0.913319
-0.9144
-0.915368
-0.916231
-0.916991
-0.917652
-0.918219
-0.918697
-0.91909
-0.919407
-0.919655
-0.919843
-0.919973
-0.920053
-0.920085
-0.920069
-0.920002
-0.919887
-0.919714
-0.919482
-0.919181
-0.918799
-0.918319
-0.917715
-0.916955
-0.915995
-0.914793
-0.913334
-0.911696
-0.910144
-0.909143
-2.56912e-07
-0.000369757
-0.0382029
-0.436109
-0.782864
-0.873869
-0.900214
-0.910417
-0.915844
-0.91984
-0.923412
-0.926811
-0.929973
-0.932815
-0.935287
-0.937396
-0.939175
-0.940679
-0.941959
-0.943084
-0.944098
-0.944994
-0.945792
-0.946506
-0.947147
-0.947724
-0.948246
-0.948717
-0.949142
-0.949525
-0.949869
-0.950176
-0.950447
-0.950685
-0.95089
-0.951063
-0.951206
-0.951322
-0.951411
-0.951479
-0.951527
-0.951558
-0.951573
-0.951576
-0.951566
-0.951538
-0.951501
-0.951447
-0.951376
-0.951285
-0.951169
-0.951021
-0.950831
-0.950586
-0.950265
-0.949849
-0.949328
-0.948726
-0.948146
-0.947769
-6.20064e-07
-0.00085098
-0.076364
-0.598188
-0.87387
-0.930783
-0.944751
-0.947994
-0.947865
-0.947051
-0.946633
-0.946921
-0.947763
-0.948948
-0.950233
-0.951468
-0.952572
-0.95352
-0.954321
-0.954999
-0.955577
-0.956069
-0.956496
-0.956869
-0.957195
-0.957483
-0.957738
-0.957966
-0.958169
-0.958349
-0.958509
-0.95865
-0.958772
-0.958877
-0.958965
-0.959037
-0.959094
-0.959137
-0.959166
-0.959184
-0.959193
-0.959193
-0.959189
-0.959178
-0.959165
-0.959144
-0.959121
-0.959094
-0.959059
-0.959017
-0.958963
-0.958892
-0.958799
-0.958673
-0.958499
-0.958265
-0.957962
-0.957606
-0.957261
-0.957038
-1.28618e-06
-0.0017082
-0.129126
-0.688457
-0.900214
-0.944751
-0.956854
-0.959562
-0.958787
-0.956958
-0.955231
-0.954132
-0.953764
-0.954024
-0.954651
-0.955456
-0.956287
-0.957055
-0.957723
-0.958282
-0.958737
-0.95911
-0.959421
-0.95968
-0.959896
-0.96008
-0.960237
-0.960371
-0.960488
-0.960588
-0.960674
-0.960747
-0.960807
-0.960857
-0.960895
-0.960924
-0.960943
-0.960952
-0.960953
-0.960946
-0.960935
-0.960918
-0.9609
-0.960879
-0.96086
-0.960834
-0.960812
-0.960789
-0.960765
-0.960736
-0.9607
-0.960653
-0.96059
-0.9605
-0.960372
-0.960196
-0.959967
-0.959704
-0.959458
-0.959303
-2.34317e-06
-0.00302163
-0.190731
-0.743747
-0.910417
-0.947994
-0.959562
-0.962742
-0.962454
-0.96076
-0.958716
-0.956951
-0.955788
-0.955292
-0.95535
-0.955768
-0.956375
-0.957032
-0.957657
-0.95821
-0.958677
-0.959063
-0.959379
-0.959634
-0.959839
-0.960007
-0.960142
-0.960253
-0.960344
-0.960417
-0.960477
-0.960524
-0.96056
-0.960586
-0.960603
-0.960612
-0.960612
-0.960604
-0.96059
-0.960568
-0.960544
-0.960513
-0.960483
-0.960449
-0.960421
-0.960386
-0.960356
-0.960327
-0.960298
-0.960265
-0.960226
-0.960178
-0.960112
-0.960019
-0.95989
-0.959718
-0.959504
-0.959275
-0.959077
-0.958963
-3.80969e-06
-0.00478571
-0.253878
-0.780948
-0.915844
-0.947865
-0.958788
-0.962454
-0.962864
-0.961721
-0.959884
-0.957932
-0.956286
-0.955183
-0.954679
-0.954678
-0.955033
-0.955573
-0.95618
-0.956775
-0.957317
-0.957785
-0.958179
-0.9585
-0.95876
-0.958969
-0.959133
-0.959264
-0.959368
-0.959447
-0.959507
-0.959552
-0.959583
-0.959602
-0.959611
-0.959611
-0.959603
-0.959585
-0.959561
-0.959528
-0.959492
-0.95945
-0.959405
-0.959359
-0.959316
-0.959267
-0.959223
-0.959179
-0.959136
-0.959088
-0.959032
-0.958966
-0.958878
-0.958761
-0.958605
-0.958408
-0.958185
-0.95797
-0.957809
-0.95773
-5.61846e-06
-0.00690488
-0.312765
-0.807582
-0.919841
-0.947052
-0.956958
-0.96076
-0.961721
-0.96124
-0.95993
-0.958197
-0.956416
-0.954907
-0.953876
-0.953383
-0.953369
-0.9537
-0.95423
-0.954844
-0.955465
-0.956043
-0.956556
-0.95699
-0.957352
-0.957649
-0.957883
-0.958071
-0.958216
-0.958327
-0.958408
-0.958467
-0.958505
-0.958526
-0.958535
-0.95853
-0.958518
-0.958491
-0.958459
-0.958416
-0.958369
-0.958313
-0.958254
-0.958191
-0.95813
-0.958063
-0.957999
-0.957935
-0.95787
-0.957799
-0.957717
-0.95762
-0.957499
-0.957343
-0.957147
-0.956916
-0.956677
-0.956479
-0.956361
-0.956322
-7.6475e-06
-0.00923467
-0.364404
-0.827415
-0.923412
-0.946633
-0.955231
-0.958716
-0.959884
-0.95993
-0.959245
-0.95802
-0.956471
-0.954867
-0.953479
-0.952504
-0.952017
-0.951986
-0.9523
-0.952836
-0.953479
-0.954146
-0.954781
-0.955353
-0.955851
-0.95627
-0.956612
-0.956892
-0.957109
-0.957277
-0.9574
-0.95749
-0.957545
-0.957576
-0.957591
-0.957586
-0.95757
-0.957535
-0.957494
-0.95744
-0.95738
-0.957309
-0.957231
-0.957148
-0.957065
-0.956977
-0.956888
-0.956798
-0.956705
-0.956603
-0.956487
-0.956353
-0.956188
-0.955985
-0.955743
-0.955476
-0.955227
-0.955056
-0.954993
-0.955001
-9.76949e-06
-0.0116353
-0.408118
-0.84257
-0.926812
-0.946921
-0.954132
-0.95695
-0.957932
-0.958197
-0.95802
-0.957395
-0.956339
-0.954983
-0.953543
-0.95226
-0.951327
-0.950838
-0.950782
-0.951082
-0.951623
-0.952295
-0.95301
-0.953707
-0.954347
-0.954913
-0.955393
-0.955794
-0.956114
-0.956366
-0.956556
-0.956694
-0.956782
-0.956834
-0.956861
-0.956859
-0.956842
-0.956797
-0.956746
-0.95668
-0.956603
-0.956515
-0.956414
-0.956308
-0.956199
-0.956085
-0.955965
-0.955846
-0.955718
-0.95558
-0.955424
-0.955245
-0.955031
-0.954777
-0.954488
-0.95419
-0.953943
-0.953814
-0.953819
-0.953881
-1.18912e-05
-0.0140091
-0.44459
-0.854363
-0.929973
-0.947763
-0.953764
-0.955787
-0.956285
-0.956416
-0.95647
-0.956339
-0.955859
-0.954983
-0.953802
-0.952507
-0.951317
-0.95042
-0.949924
-0.949844
-0.950123
-0.950662
-0.951359
-0.952118
-0.952874
-0.953582
-0.954213
-0.954759
-0.95521
-0.955576
-0.955858
-0.956067
-0.956208
-0.956296
-0.956347
-0.956354
-0.956338
-0.956286
-0.956225
-0.956143
-0.956048
-0.955939
-0.955812
-0.955678
-0.95554
-0.955396
-0.95524
-0.955086
-0.95492
-0.954739
-0.954538
-0.954309
-0.954043
-0.953738
-0.953405
-0.953087
-0.952857
-0.952787
-0.952869
-0.952988
-1.39653e-05
-0.0163086
-0.475042
-0.863694
-0.932815
-0.948947
-0.954023
-0.955292
-0.955182
-0.954906
-0.954867
-0.954983
-0.954983
-0.954655
-0.953938
-0.95291
-0.951741
-0.950635
-0.949772
-0.949271
-0.949168
-0.949423
-0.949956
-0.950667
-0.951464
-0.952275
-0.953046
-0.953742
-0.954343
-0.954847
-0.955249
-0.955554
-0.955773
-0.955918
-0.956008
-0.956037
-0.956029
-0.955975
-0.955904
-0.955809
-0.955695
-0.95556
-0.955406
-0.95524
-0.955069
-0.95489
-0.954696
-0.954501
-0.954294
-0.954064
-0.953813
-0.953533
-0.953214
-0.952861
-0.952492
-0.952167
-0.951972
-0.951974
-0.952139
-0.952315
-1.59837e-05
-0.0185268
-0.500754
-0.871199
-0.935287
-0.950233
-0.95465
-0.955349
-0.954678
-0.953875
-0.953479
-0.953542
-0.953802
-0.953938
-0.953741
-0.953157
-0.952257
-0.951198
-0.950167
-0.949339
-0.948837
-0.948711
-0.948944
-0.949466
-0.950188
-0.951019
-0.951877
-0.952703
-0.953452
-0.954107
-0.954651
-0.955081
-0.955405
-0.955632
-0.955782
-0.955848
-0.955863
-0.955816
-0.955743
-0.955637
-0.955502
-0.955346
-0.955161
-0.954962
-0.954755
-0.954538
-0.954302
-0.954063
-0.953812
-0.95353
-0.953227
-0.952894
-0.952524
-0.952128
-0.951736
-0.951419
-0.951275
-0.951357
-0.951608
-0.951837
-1.79611e-05
-0.0206797
-0.522834
-0.877347
-0.937396
-0.951467
-0.955456
-0.955767
-0.954677
-0.953383
-0.952504
-0.95226
-0.952507
-0.95291
-0.953157
-0.953062
-0.952583
-0.95179
-0.950824
-0.949861
-0.949066
-0.948567
-0.948424
-0.948636
-0.949148
-0.949878
-0.950734
-0.951631
-0.952502
-0.9533
-0.953996
-0.954565
-0.955016
-0.95535
-0.955579
-0.955707
-0.95576
-0.955737
-0.955675
-0.955566
-0.95542
-0.955244
-0.955032
-0.954799
-0.954556
-0.9543
-0.95402
-0.953737
-0.953441
-0.953107
-0.95275
-0.952367
-0.951952
-0.951524
-0.951121
-0.95083
-0.95075
-0.950918
-0.951249
-0.951527
-1.99206e-05
-0.0227912
-0.542147
-0.882478
-0.939176
-0.952572
-0.956287
-0.956375
-0.955033
-0.95337
-0.952017
-0.951327
-0.951317
-0.951742
-0.952258
-0.952583
-0.952563
-0.952165
-0.951457
-0.950571
-0.949666
-0.948903
-0.948409
-0.948254
-0.948449
-0.948951
-0.949686
-0.95056
-0.951487
-0.952392
-0.95322
-0.953927
-0.954512
-0.954973
-0.955317
-0.955536
-0.955661
-0.955691
-0.955661
-0.955569
-0.955427
-0.955236
-0.954999
-0.954735
-0.954455
-0.954155
-0.953825
-0.953491
-0.953142
-0.952757
-0.95235
-0.951926
-0.951478
-0.951031
-0.950635
-0.950387
-0.95038
-0.950634
-0.951038
-0.951356
-2.18825e-05
-0.0248822
-0.559318
-0.88684
-0.940678
-0.95352
-0.957054
-0.957031
-0.955573
-0.9537
-0.951986
-0.950838
-0.95042
-0.950635
-0.951199
-0.95179
-0.952165
-0.952194
-0.951857
-0.951216
-0.950393
-0.949539
-0.948806
-0.948318
-0.948154
-0.948335
-0.948827
-0.949559
-0.950439
-0.951372
-0.952278
-0.953113
-0.953841
-0.954451
-0.954938
-0.955286
-0.955517
-0.955637
-0.955671
-0.955617
-0.955498
-0.955306
-0.955058
-0.95477
-0.954455
-0.954109
-0.953725
-0.953335
-0.952927
-0.952485
-0.952021
-0.95155
-0.951076
-0.950634
-0.950266
-0.950078
-0.95015
-0.950485
-0.950951
-0.9513
-2.38608e-05
-0.026967
-0.574784
-0.890611
-0.94196
-0.954321
-0.957723
-0.957657
-0.95618
-0.954229
-0.952299
-0.950782
-0.949925
-0.949773
-0.950168
-0.950825
-0.951458
-0.951856
-0.951915
-0.951619
-0.951028
-0.950256
-0.949443
-0.948733
-0.948251
-0.948078
-0.948243
-0.948715
-0.949421
-0.950275
-0.951196
-0.952117
-0.952972
-0.953736
-0.954378
-0.954886
-0.95526
-0.955501
-0.955639
-0.955663
-0.955597
-0.955432
-0.955186
-0.954885
-0.954543
-0.954155
-0.953719
-0.95327
-0.952799
-0.952297
-0.951774
-0.951254
-0.950754
-0.950316
-0.949999
-0.949889
-0.950042
-0.950452
-0.950967
-0.951337
-2.58673e-05
-0.0290559
-0.588845
-0.893925
-0.943085
-0.954999
-0.958283
-0.958211
-0.956777
-0.954846
-0.952838
-0.951084
-0.949846
-0.949273
-0.94934
-0.949862
-0.950571
-0.951217
-0.951618
-0.951688
-0.951417
-0.950862
-0.950126
-0.949342
-0.948648
-0.948165
-0.947976
-0.948102
-0.948522
-0.949186
-0.95002
-0.950948
-0.951882
-0.952773
-0.953574
-0.954262
-0.954811
-0.955217
-0.955498
-0.95564
-0.955663
-0.955562
-0.955344
-0.95505
-0.954703
-0.954276
-0.953795
-0.953291
-0.952756
-0.952191
-0.951611
-0.951043
-0.950521
-0.950093
-0.949827
-0.949802
-0.950041
-0.950516
-0.951066
-0.951447
-2.79055e-05
-0.0311518
-0.601702
-0.896871
-0.944098
-0.955577
-0.958738
-0.958678
-0.957318
-0.955467
-0.953481
-0.951624
-0.950124
-0.949168
-0.948837
-0.949067
-0.949667
-0.950393
-0.951028
-0.951416
-0.951481
-0.951219
-0.950682
-0.949968
-0.9492
-0.948507
-0.948001
-0.947757
-0.947822
-0.94819
-0.94882
-0.949642
-0.950572
-0.95154
-0.952474
-0.953347
-0.954097
-0.954701
-0.955172
-0.955478
-0.955632
-0.955638
-0.955485
-0.955229
-0.954894
-0.954448
-0.953933
-0.953383
-0.952788
-0.952166
-0.95153
-0.950922
-0.950383
-0.949971
-0.949756
-0.949805
-0.950127
-0.950659
-0.951229
-0.951612
-2.99653e-05
-0.0332465
-0.613508
-0.899507
-0.944994
-0.956069
-0.95911
-0.959063
-0.957785
-0.956043
-0.954145
-0.952295
-0.950662
-0.949423
-0.948711
-0.948567
-0.948903
-0.949539
-0.950255
-0.95086
-0.951218
-0.951265
-0.950995
-0.950458
-0.949745
-0.948965
-0.948231
-0.947663
-0.947353
-0.947352
-0.947665
-0.948259
-0.949067
-0.950022
-0.95104
-0.952075
-0.953031
-0.953869
-0.954569
-0.955093
-0.955421
-0.95558
-0.955546
-0.955368
-0.955071
-0.954631
-0.954108
-0.953525
-0.952882
-0.952211
-0.95153
-0.95089
-0.950343
-0.949953
-0.949788
-0.949903
-0.950285
-0.950856
-0.951435
-0.951815
-3.2038e-05
-0.0353326
-0.624367
-0.901881
-0.945792
-0.956496
-0.959421
-0.959379
-0.958179
-0.956554
-0.95478
-0.95301
-0.951359
-0.949956
-0.948943
-0.948424
-0.948409
-0.948805
-0.949442
-0.950123
-0.95068
-0.950993
-0.951003
-0.950706
-0.950141
-0.949385
-0.948545
-0.947742
-0.947093
-0.946698
-0.946615
-0.946862
-0.947417
-0.948242
-0.949267
-0.950415
-0.951565
-0.952648
-0.953604
-0.954382
-0.954938
-0.955299
-0.955437
-0.955396
-0.955179
-0.954789
-0.954285
-0.95369
-0.953022
-0.952317
-0.951606
-0.950946
-0.950402
-0.950039
-0.949923
-0.950092
-0.950517
-0.951103
-0.951673
-0.95204
-3.41198e-05
-0.0374062
-0.634378
-0.904026
-0.946506
-0.956869
-0.95968
-0.959634
-0.9585
-0.95699
-0.955353
-0.953707
-0.952118
-0.950667
-0.949466
-0.948636
-0.948254
-0.948317
-0.948732
-0.94934
-0.949966
-0.950457
-0.950706
-0.950652
-0.950287
-0.949645
-0.948808
-0.947875
-0.946967
-0.946205
-0.945694
-0.94551
-0.945692
-0.946268
-0.947198
-0.948375
-0.94967
-0.950968
-0.952187
-0.953253
-0.954092
-0.954705
-0.955072
-0.955224
-0.955144
-0.954867
-0.954424
-0.953854
-0.953185
-0.952473
-0.951751
-0.951087
-0.950556
-0.950227
-0.950155
-0.950367
-0.950818
-0.951398
-0.951944
-0.952291
-3.62046e-05
-0.0394617
-0.643614
-0.90597
-0.947147
-0.957194
-0.959896
-0.959839
-0.958761
-0.957353
-0.955851
-0.954348
-0.952874
-0.951465
-0.950188
-0.949148
-0.948449
-0.948153
-0.94825
-0.948647
-0.949198
-0.949743
-0.950141
-0.950284
-0.950123
-0.949647
-0.948894
-0.947931
-0.946861
-0.945802
-0.944887
-0.944239
-0.943978
-0.944214
-0.944933
-0.946028
-0.947369
-0.948812
-0.950262
-0.951615
-0.952774
-0.9537
-0.954355
-0.954753
-0.954887
-0.954778
-0.954464
-0.953967
-0.953345
-0.952656
-0.951949
-0.951305
-0.950802
-0.950511
-0.950478
-0.950719
-0.951178
-0.951738
-0.952248
-0.952569
-3.82834e-05
-0.0414908
-0.652134
-0.907736
-0.947724
-0.957483
-0.96008
-0.960007
-0.958969
-0.957649
-0.956271
-0.954913
-0.953583
-0.952276
-0.951019
-0.949878
-0.948952
-0.948335
-0.948078
-0.948165
-0.948505
-0.948963
-0.949384
-0.949643
-0.949646
-0.94934
-0.948713
-0.947793
-0.946652
-0.945393
-0.944149
-0.943084
-0.942436
-0.94233
-0.942732
-0.943575
-0.944756
-0.946207
-0.947814
-0.949408
-0.95088
-0.952154
-0.95315
-0.953879
-0.954303
-0.954443
-0.954324
-0.95398
-0.953454
-0.95284
-0.952184
-0.951588
-0.951132
-0.950883
-0.950885
-0.951141
-0.951592
-0.952118
-0.952583
-0.952876
-4.03449e-05
-0.0434836
-0.659983
-0.909341
-0.948246
-0.957738
-0.960236
-0.960142
-0.959133
-0.957883
-0.956612
-0.955393
-0.954214
-0.953045
-0.951876
-0.950734
-0.949686
-0.948827
-0.948243
-0.947975
-0.948
-0.948229
-0.948543
-0.948805
-0.948892
-0.948712
-0.948211
-0.947374
-0.94624
-0.944884
-0.943441
-0.942158
-0.941303
-0.940881
-0.94088
-0.941296
-0.942123
-0.943382
-0.944926
-0.946619
-0.948356
-0.94998
-0.951359
-0.952479
-0.953275
-0.953741
-0.953912
-0.95381
-0.953465
-0.952984
-0.952432
-0.951919
-0.95153
-0.951332
-0.951364
-0.951625
-0.952053
-0.952533
-0.952948
-0.953207
-4.23769e-05
-0.0454293
-0.667201
-0.910799
-0.948717
-0.957966
-0.960372
-0.960253
-0.959265
-0.958071
-0.956891
-0.955793
-0.954757
-0.953741
-0.952702
-0.951631
-0.95056
-0.949559
-0.948715
-0.948102
-0.947756
-0.947662
-0.94774
-0.947871
-0.947928
-0.947791
-0.947373
-0.946625
-0.945556
-0.944222
-0.942792
-0.941547
-0.940561
-0.939813
-0.939388
-0.939359
-0.939782
-0.940657
-0.941896
-0.943481
-0.945278
-0.947122
-0.948892
-0.950433
-0.951681
-0.952572
-0.95314
-0.95337
-0.953305
-0.953037
-0.952654
-0.952273
-0.951979
-0.951843
-0.951904
-0.95216
-0.952554
-0.952978
-0.953337
-0.95356
-4.4366e-05
-0.0473168
-0.673819
-0.912122
-0.949142
-0.958168
-0.960487
-0.960342
-0.959366
-0.958215
-0.957108
-0.956113
-0.95521
-0.954344
-0.953454
-0.952504
-0.951489
-0.950439
-0.949421
-0.948521
-0.947821
-0.947352
-0.947093
-0.946965
-0.946858
-0.946649
-0.946237
-0.945553
-0.944592
-0.943418
-0.942217
-0.941092
-0.939966
-0.938927
-0.938119
-0.937674
-0.937677
-0.938119
-0.939016
-0.940329
-0.941931
-0.943792
-0.945758
-0.947677
-0.949417
-0.950809
-0.951873
-0.952555
-0.952882
-0.952934
-0.952803
-0.952612
-0.95245
-0.952395
-0.952489
-0.952737
-0.953086
-0.953451
-0.953748
-0.953935
-4.62981e-05
-0.0491345
-0.679867
-0.91332
-0.949525
-0.958349
-0.960588
-0.960417
-0.959447
-0.958326
-0.957276
-0.956367
-0.955575
-0.954845
-0.954107
-0.953303
-0.952393
-0.951372
-0.950275
-0.949186
-0.94819
-0.947351
-0.946697
-0.946203
-0.945799
-0.945389
-0.94488
-0.944219
-0.943418
-0.942542
-0.941627
-0.940575
-0.939353
-0.938101
-0.936961
-0.936108
-0.935663
-0.935692
-0.936235
-0.937235
-0.938624
-0.940339
-0.942254
-0.944348
-0.946429
-0.948357
-0.950016
-0.951263
-0.952105
-0.952602
-0.952816
-0.952887
-0.952908
-0.952961
-0.9531
-0.95334
-0.953643
-0.95395
-0.954183
-0.954336
-4.81583e-05
-0.0508702
-0.685368
-0.9144
-0.949869
-0.958509
-0.960673
-0.960477
-0.959507
-0.958408
-0.9574
-0.956556
-0.955859
-0.955248
-0.954651
-0.953997
-0.953222
-0.952281
-0.951199
-0.950022
-0.948821
-0.947665
-0.946615
-0.945693
-0.944885
-0.944147
-0.943438
-0.942791
-0.942216
-0.941627
-0.940878
-0.939865
-0.938617
-0.937232
-0.935845
-0.93463
-0.933745
-0.93332
-0.933435
-0.934097
-0.935271
-0.936833
-0.938685
-0.940774
-0.942963
-0.945278
-0.947464
-0.949388
-0.950865
-0.951933
-0.952615
-0.953035
-0.953305
-0.95351
-0.953715
-0.953957
-0.954225
-0.954469
-0.954645
-0.954763
-4.99306e-05
-0.0525111
-0.690339
-0.915369
-0.950176
-0.95865
-0.960746
-0.960523
-0.959552
-0.958467
-0.957489
-0.956694
-0.956066
-0.955553
-0.955082
-0.954569
-0.953931
-0.953116
-0.952118
-0.950946
-0.949641
-0.948259
-0.946862
-0.945509
-0.944237
-0.94308
-0.942154
-0.941546
-0.941091
-0.940573
-0.939865
-0.938895
-0.93767
-0.936231
-0.934685
-0.933185
-0.93191
-0.931018
-0.930659
-0.930891
-0.931736
-0.933124
-0.93495
-0.93706
-0.939374
-0.941837
-0.944348
-0.946825
-0.949051
-0.950819
-0.952094
-0.95298
-0.953584
-0.953999
-0.954309
-0.954577
-0.954818
-0.955009
-0.955137
-0.955217
-5.15977e-05
-0.0540436
-0.694796
-0.916231
-0.950447
-0.958772
-0.960807
-0.96056
-0.959583
-0.958506
-0.957547
-0.956783
-0.956209
-0.955775
-0.95541
-0.955022
-0.95452
-0.953848
-0.952979
-0.951888
-0.950575
-0.949068
-0.947418
-0.945692
-0.943975
-0.942433
-0.941302
-0.940561
-0.939967
-0.939356
-0.938618
-0.937664
-0.936467
-0.935024
-0.933394
-0.931702
-0.930109
-0.928791
-0.927934
-0.927672
-0.928078
-0.929171
-0.930866
-0.93303
-0.935537
-0.938181
-0.940929
-0.943734
-0.946565
-0.949138
-0.951149
-0.952628
-0.953669
-0.954373
-0.954843
-0.955173
-0.955411
-0.955571
-0.955666
-0.955713
-5.31422e-05
-0.055454
-0.698749
-0.916992
-0.950685
-0.958877
-0.960856
-0.960586
-0.959602
-0.958526
-0.957577
-0.956836
-0.956298
-0.955922
-0.955637
-0.955359
-0.954983
-0.954461
-0.95374
-0.952781
-0.951544
-0.950023
-0.948244
-0.94627
-0.944214
-0.942331
-0.940883
-0.939815
-0.938926
-0.9381
-0.937231
-0.936226
-0.935023
-0.933587
-0.931925
-0.930115
-0.928285
-0.926601
-0.92527
-0.924477
-0.924374
-0.925035
-0.926465
-0.928565
-0.931185
-0.934123
-0.937219
-0.940368
-0.943545
-0.94678
-0.949647
-0.951862
-0.953466
-0.954564
-0.955272
-0.955718
-0.95599
-0.956149
-0.956219
-0.956246
-5.45483e-05
-0.0567307
-0.702211
-0.917653
-0.95089
-0.958966
-0.960895
-0.960603
-0.959611
-0.958535
-0.957591
-0.956861
-0.956346
-0.956006
-0.955777
-0.955575
-0.955312
-0.954935
-0.954376
-0.953574
-0.952477
-0.95104
-0.949266
-0.947197
-0.944932
-0.942734
-0.940883
-0.93939
-0.938119
-0.93696
-0.935842
-0.934681
-0.933395
-0.931931
-0.930248
-0.928366
-0.926379
-0.924406
-0.922652
-0.921331
-0.92067
-0.920804
-0.921823
-0.923707
-0.926325
-0.929484
-0.93298
-0.936618
-0.940232
-0.943848
-0.947451
-0.950537
-0.952851
-0.954471
-0.955522
-0.956173
-0.956538
-0.956723
-0.956789
-0.956822
-5.58041e-05
-0.057865
-0.705198
-0.91822
-0.951063
-0.959038
-0.960924
-0.960611
-0.95961
-0.95853
-0.957585
-0.956857
-0.956352
-0.956034
-0.955844
-0.955703
-0.955533
-0.955278
-0.954875
-0.954251
-0.953334
-0.952066
-0.950406
-0.948373
-0.946031
-0.94358
-0.941299
-0.93936
-0.937673
-0.936106
-0.934629
-0.933185
-0.931704
-0.930121
-0.928374
-0.926428
-0.924312
-0.92213
-0.920039
-0.91824
-0.917003
-0.916552
-0.917029
-0.918537
-0.921002
-0.924252
-0.928073
-0.932209
-0.936434
-0.940534
-0.944585
-0.948482
-0.951667
-0.953962
-0.955497
-0.95646
-0.957002
-0.957271
-0.957373
-0.957414
-5.69024e-05
-0.0588527
-0.707733
-0.918699
-0.951206
-0.959094
-0.960942
-0.960612
-0.959602
-0.958516
-0.957568
-0.956839
-0.956334
-0.956024
-0.955859
-0.955756
-0.955659
-0.955513
-0.955259
-0.954816
-0.954099
-0.953036
-0.95157
-0.94968
-0.947379
-0.944761
-0.942126
-0.939782
-0.937674
-0.935659
-0.933743
-0.931908
-0.930114
-0.928293
-0.926386
-0.924324
-0.92209
-0.919738
-0.917368
-0.915161
-0.91338
-0.912318
-0.91218
-0.913148
-0.915281
-0.918464
-0.922487
-0.927051
-0.931867
-0.936655
-0.941202
-0.945626
-0.9497
-0.952852
-0.955041
-0.95646
-0.957294
-0.957722
-0.957919
-0.957992
-5.78414e-05
-0.0596922
-0.709839
-0.919092
-0.951322
-0.959137
-0.960952
-0.960605
-0.959585
-0.958492
-0.957537
-0.956799
-0.956289
-0.955979
-0.955822
-0.955742
-0.955693
-0.955636
-0.955508
-0.955224
-0.954705
-0.953867
-0.952638
-0.95096
-0.948803
-0.946197
-0.943374
-0.94065
-0.938111
-0.935684
-0.933314
-0.931016
-0.928788
-0.926599
-0.924404
-0.922128
-0.919727
-0.917197
-0.914596
-0.912055
-0.909795
-0.908123
-0.907324
-0.907635
-0.909269
-0.912191
-0.916242
-0.921114
-0.926459
-0.931921
-0.937182
-0.942072
-0.94677
-0.950878
-0.953909
-0.95597
-0.957257
-0.957962
-0.958317
-0.958455
-5.86241e-05
-0.0603896
-0.711555
-0.919409
-0.951413
-0.959167
-0.960954
-0.960591
-0.959562
-0.95846
-0.957495
-0.956747
-0.956225
-0.955907
-0.955746
-0.955678
-0.955666
-0.955674
-0.955642
-0.955504
-0.95517
-0.954563
-0.95359
-0.952173
-0.950248
-0.947798
-0.944912
-0.941879
-0.939001
-0.93622
-0.93342
-0.930645
-0.927922
-0.92526
-0.922646
-0.920024
-0.917349
-0.914584
-0.911744
-0.908903
-0.906238
-0.903997
-0.902503
-0.902122
-0.90307
-0.905531
-0.909403
-0.914411
-0.920177
-0.926259
-0.932254
-0.93783
-0.942952
-0.947771
-0.951811
-0.954717
-0.956638
-0.957775
-0.958392
-0.95866
-5.92575e-05
-0.0609523
-0.712917
-0.919658
-0.95148
-0.959185
-0.960948
-0.96057
-0.95953
-0.958419
-0.957443
-0.956682
-0.956145
-0.95581
-0.955636
-0.955564
-0.955565
-0.955611
-0.955654
-0.955633
-0.955475
-0.955082
-0.954361
-0.953223
-0.951587
-0.949375
-0.946585
-0.943443
-0.940297
-0.937212
-0.934074
-0.930869
-0.927653
-0.92446
-0.921315
-0.918223
-0.915147
-0.912028
-0.908888
-0.905732
-0.902681
-0.899924
-0.897789
-0.896649
-0.896824
-0.898606
-0.902074
-0.906986
-0.912987
-0.919593
-0.926278
-0.932634
-0.938383
-0.943581
-0.948408
-0.952333
-0.955066
-0.956821
-0.957826
-0.958289
-5.97488e-05
-0.0613878
-0.713959
-0.919847
-0.951529
-0.959195
-0.960936
-0.960545
-0.959493
-0.958369
-0.957379
-0.956601
-0.956044
-0.955688
-0.955494
-0.955408
-0.955409
-0.955475
-0.95557
-0.955639
-0.955614
-0.955412
-0.954933
-0.954078
-0.952741
-0.95084
-0.948312
-0.94523
-0.941895
-0.938591
-0.93524
-0.93171
-0.928054
-0.924352
-0.920648
-0.916976
-0.913358
-0.909763
-0.906203
-0.902658
-0.899191
-0.895957
-0.893189
-0.891276
-0.890628
-0.891591
-0.89438
-0.898944
-0.904935
-0.911881
-0.919166
-0.926269
-0.932837
-0.93858
-0.943737
-0.948419
-0.952094
-0.954611
-0.956138
-0.956872
-6.01024e-05
-0.0617009
-0.7147
-0.919978
-0.95156
-0.959195
-0.960919
-0.960514
-0.95945
-0.958314
-0.957309
-0.956513
-0.955935
-0.955557
-0.955341
-0.955234
-0.955221
-0.955292
-0.955418
-0.955544
-0.955617
-0.955553
-0.955271
-0.954678
-0.953663
-0.952118
-0.949937
-0.947076
-0.943751
-0.940305
-0.936803
-0.933098
-0.929147
-0.925013
-0.920783
-0.916523
-0.912283
-0.908078
-0.903955
-0.899899
-0.89594
-0.892178
-0.888796
-0.886149
-0.884614
-0.884614
-0.886502
-0.890422
-0.896104
-0.903127
-0.910835
-0.918631
-0.925984
-0.932556
-0.938152
-0.943041
-0.947333
-0.950596
-0.952732
-0.95377
-6.03229e-05
-0.061896
-0.715158
-0.920057
-0.951574
-0.959189
-0.9609
-0.960483
-0.959406
-0.958254
-0.957232
-0.956416
-0.955814
-0.955408
-0.955164
-0.955032
-0.954997
-0.955053
-0.955181
-0.955344
-0.955488
-0.955541
-0.955432
-0.955078
-0.954356
-0.953149
-0.951348
-0.948873
-0.945733
-0.94223
-0.938663
-0.934929
-0.930843
-0.926444
-0.921801
-0.916997
-0.912139
-0.907276
-0.90247
-0.897774
-0.893196
-0.888827
-0.884801
-0.881374
-0.878911
-0.877878
-0.878702
-0.881616
-0.886645
-0.89343
-0.901309
-0.909578
-0.917647
-0.925014
-0.931405
-0.936621
-0.941036
-0.944619
-0.947119
-0.948406
-6.04143e-05
-0.061977
-0.715347
-0.920087
-0.951577
-0.959179
-0.96088
-0.960451
-0.95936
-0.958192
-0.95715
-0.95631
-0.955681
-0.955245
-0.954969
-0.954807
-0.954744
-0.954777
-0.954897
-0.955065
-0.955239
-0.955375
-0.9554
-0.955234
-0.95477
-0.953897
-0.952493
-0.950437
-0.947661
-0.944329
-0.940759
-0.937045
-0.933012
-0.928547
-0.923687
-0.918515
-0.913118
-0.907611
-0.902099
-0.896633
-0.891306
-0.88618
-0.881383
-0.877108
-0.873694
-0.871574
-0.871188
-0.872846
-0.876828
-0.882916
-0.89058
-0.899087
-0.907657
-0.915767
-0.922954
-0.928925
-0.933622
-0.937248
-0.939743
-0.94103
-6.03761e-05
-0.0619437
-0.715269
-0.92007
-0.951566
-0.959165
-0.960859
-0.96042
-0.959315
-0.958129
-0.957066
-0.956201
-0.955542
-0.955072
-0.95476
-0.954562
-0.95446
-0.95446
-0.954549
-0.954706
-0.954898
-0.955078
-0.955189
-0.955159
-0.954899
-0.954315
-0.953289
-0.951701
-0.949432
-0.946434
-0.942962
-0.939368
-0.935524
-0.931169
-0.926306
-0.920979
-0.915257
-0.909242
-0.903049
-0.896811
-0.89065
-0.884623
-0.878907
-0.873692
-0.869203
-0.865891
-0.86414
-0.864359
-0.866915
-0.87184
-0.878808
-0.887106
-0.895891
-0.90458
-0.912463
-0.919206
-0.924596
-0.928541
-0.93114
-0.932479
-6.02148e-05
-0.0618016
-0.714932
-0.920003
-0.951539
-0.959144
-0.960834
-0.960385
-0.959267
-0.958064
-0.956978
-0.956087
-0.955398
-0.954894
-0.954542
-0.954304
-0.954159
-0.954115
-0.954162
-0.954284
-0.954454
-0.954636
-0.954794
-0.954871
-0.954779
-0.954438
-0.953742
-0.952579
-0.950825
-0.948364
-0.945275
-0.941832
-0.93817
-0.93411
-0.92947
-0.924236
-0.918445
-0.91217
-0.905512
-0.898582
-0.891577
-0.884604
-0.877842
-0.871501
-0.865857
-0.861202
-0.85795
-0.856525
-0.857311
-0.86056
-0.866227
-0.873733
-0.882266
-0.891124
-0.899522
-0.906967
-0.91303
-0.917619
-0.920677
-0.922231
-5.99152e-05
-0.0615374
-0.714311
-0.919888
-0.9515
-0.959121
-0.960812
-0.960355
-0.959223
-0.957999
-0.956888
-0.955966
-0.955242
-0.954698
-0.954305
-0.954024
-0.953831
-0.95373
-0.953724
-0.9538
-0.953939
-0.954116
-0.954291
-0.95443
-0.95446
-0.954326
-0.953924
-0.95315
-0.95189
-0.950025
-0.947466
-0.944345
-0.940922
-0.93721
-0.932968
-0.928059
-0.92247
-0.916222
-0.909374
-0.902028
-0.894346
-0.886477
-0.878648
-0.871081
-0.864072
-0.857912
-0.852899
-0.849606
-0.848335
-0.849512
-0.853182
-0.859153
-0.866756
-0.875225
-0.883754
-0.891573
-0.898256
-0.903408
-0.906869
-0.908709
-5.94731e-05
-0.0611469
-0.713384
-0.919716
-0.951447
-0.959093
-0.960789
-0.960326
-0.959179
-0.957934
-0.956798
-0.955846
-0.955087
-0.954502
-0.954065
-0.95374
-0.953494
-0.953339
-0.953274
-0.953293
-0.953384
-0.953523
-0.95369
-0.953851
-0.953966
-0.953965
-0.953791
-0.953359
-0.952549
-0.951265
-0.949378
-0.94682
-0.943726
-0.940359
-0.936606
-0.932195
-0.927035
-0.921094
-0.914378
-0.90695
-0.89889
-0.89037
-0.881574
-0.872759
-0.864285
-0.856458
-0.849538
-0.844023
-0.840381
-0.838982
-0.839995
-0.843607
-0.849362
-0.856679
-0.864626
-0.87239
-0.879293
-0.88481
-0.888632
-0.890723
-5.88808e-05
-0.0606222
-0.712127
-0.919484
-0.951376
-0.959059
-0.960764
-0.960297
-0.959135
-0.95787
-0.956705
-0.955718
-0.95492
-0.954294
-0.953812