/*--------------------------------*- C++ -*----------------------------------*\
| =========                 |                                                 |
| \\      /  F ield         | OpenFOAM: The Open Source CFD Toolbox           |
|  \\    /   O peration     | Version:  2212                                  |
|   \\  /    A nd           | Website:  www.openfoam.com                      |
|    \\/     M anipulation  |                                                 |
\*---------------------------------------------------------------------------*/
FoamFile
{
    version     2.0;
    format      ascii;
    arch        "LSB;label=32;scalar=64";
    class       volScalarField;
    location    "1";
    object      theta4_Scaled_;
}
// * * * * * * * * * * * * * * * * * * * * * * * * * * * * * * * * * * * * * //

dimensions      [0 0 0 0 0 0 0];

internalField   nonuniform List<scalar> 
3600
(
-3.73781e-12
-2.67901e-10
-2.70282e-09
-1.12771e-08
-2.42532e-08
-2.4069e-08
8.61992e-09
6.99607e-08
1.40578e-07
1.98024e-07
2.30133e-07
2.36326e-07
2.23892e-07
2.02281e-07
1.79339e-07
1.60045e-07
1.46506e-07
1.38413e-07
1.34787e-07
1.37647e-07
1.46957e-07
1.5752e-07
1.67881e-07
1.78995e-07
1.90861e-07
2.03238e-07
2.15866e-07
2.28478e-07
2.40901e-07
2.53004e-07
2.64621e-07
2.7559e-07
2.85761e-07
2.94855e-07
3.02666e-07
3.09165e-07
3.1444e-07
3.18637e-07
3.21814e-07
3.24127e-07
3.25739e-07
3.26795e-07
3.27418e-07
3.27582e-07
3.27101e-07
3.2598e-07
3.2416e-07
3.21531e-07
3.17959e-07
3.13404e-07
3.07683e-07
3.0046e-07
2.91275e-07
2.79443e-07
2.63959e-07
2.43479e-07
2.16964e-07
1.85471e-07
1.54633e-07
1.34245e-07
-2.67948e-10
-1.262e-07
-1.50254e-06
-5.29018e-06
-1.00658e-05
-8.56787e-06
6.58064e-06
3.35129e-05
6.40139e-05
8.87489e-05
0.000102371
0.000104446
9.78409e-05
8.6518e-05
7.38415e-05
6.20387e-05
5.21282e-05
4.41269e-05
3.76997e-05
3.31438e-05
3.01462e-05
2.74894e-05
2.46507e-05
2.19612e-05
1.94365e-05
1.70081e-05
1.46151e-05
1.22e-05
9.74694e-06
7.26388e-06
4.74701e-06
2.20011e-06
-3.65163e-07
-2.98962e-06
-5.68683e-06
-8.40959e-06
-1.10774e-05
-1.3589e-05
-1.59187e-05
-1.80128e-05
-1.9811e-05
-2.12635e-05
-2.23338e-05
-2.30364e-05
-2.34471e-05
-2.35878e-05
-2.34264e-05
-2.30017e-05
-2.23519e-05
-2.14527e-05
-2.03389e-05
-1.9098e-05
-1.78498e-05
-1.68236e-05
-1.64205e-05
-1.73041e-05
-2.02599e-05
-2.55679e-05
-3.20229e-05
-3.66954e-05
-2.70304e-09
-1.5026e-06
-4.5714e-05
-0.000194441
-0.000298018
-0.000142214
0.000350581
0.00102231
0.00168228
0.00214902
0.0023272
0.00222409
0.00191476
0.00149564
0.00104644
0.000620074
0.000241588
-8.58492e-05
-0.000369233
-0.000596418
-0.000765302
-0.000914757
-0.00105518
-0.0011831
-0.00130013
-0.00140875
-0.00151078
-0.00160795
-0.00170103
-0.00179038
-0.00187652
-0.00195986
-0.00204066
-0.00212023
-0.00219919
-0.00227679
-0.00235157
-0.00242127
-0.00248573
-0.00254384
-0.00259437
-0.00263631
-0.00266883
-0.0026924
-0.00270862
-0.00271799
-0.00272002
-0.00271558
-0.00270543
-0.00268918
-0.00266773
-0.00264321
-0.00261859
-0.00259932
-0.00259472
-0.00261997
-0.00269286
-0.00281939
-0.00297158
-0.00307968
-1.12776e-08
-5.29036e-06
-0.000194445
-0.00103771
-0.000344062
0.00374968
0.00866833
0.0122725
0.01454
0.0154567
0.015164
0.0139481
0.0121654
0.0101723
0.00822548
0.00648942
0.00503462
0.00388635
0.00301308
0.00231761
0.00176328
0.00136992
0.00111476
0.000948862
0.000844943
0.000783188
0.000750022
0.000733395
0.000725386
0.00071974
0.000710264
0.00069117
0.00065711
0.000600044
0.000515637
0.000405681
0.000275915
0.000134079
-1.63062e-05
-0.00016786
-0.000313632
-0.000448572
-0.000567592
-0.00067292
-0.000770553
-0.000860977
-0.000947814
-0.00103582
-0.00112934
-0.00123201
-0.00135351
-0.00151066
-0.00172713
-0.00203826
-0.00249575
-0.00316841
-0.00411555
-0.00530727
-0.00651816
-0.00732071
-2.42539e-08
-1.00661e-05
-0.000298026
-0.000344098
0.0114693
0.0388
0.0624948
0.0740482
0.0779262
0.0764181
0.0713689
0.0643453
0.0566361
0.0492325
0.0426681
0.0371757
0.0327624
0.0294011
0.0269524
0.0247682
0.0225047
0.0207182
0.019417
0.0183952
0.0175659
0.0168732
0.0162801
0.0157569
0.0152832
0.0148413
0.0144174
0.0139986
0.0135726
0.0131262
0.0126538
0.0121601
0.0116563
0.0111556
0.010666
0.0102018
0.00977479
0.00939303
0.00906448
0.00878319
0.00853957
0.0083346
0.0081563
0.00799625
0.0078476
0.00770093
0.00753477
0.00731432
0.00699064
0.00649221
0.00571727
0.00453624
0.0028436
0.000703668
-0.00146102
-0.00289705
-2.40696e-08
-8.56809e-06
-0.000142223
0.00374963
0.0388
0.103748
0.148742
0.167891
0.176396
0.176541
0.169162
0.15586
0.138676
0.120033
0.101791
0.0852385
0.0709784
0.059157
0.0495968
0.0417705
0.0351814
0.0297367
0.0253294
0.0216858
0.0186319
0.0160361
0.0137983
0.0118414
0.0101056
0.00853925
0.00710382
0.00576375
0.00448663
0.00324462
0.00202443
0.000826699
-0.000336882
-0.00144567
-0.00249197
-0.00345878
-0.00433367
-0.00510923
-0.00577752
-0.00635231
-0.00684591
-0.00725513
-0.00760435
-0.00790759
-0.00817289
-0.0084175
-0.00867583
-0.00900124
-0.0094673
-0.0101757
-0.0112617
-0.0128805
-0.0151282
-0.0178622
-0.0205275
-0.022246
8.62036e-09
6.58083e-06
0.000350584
0.00866833
0.0624948
0.148742
0.195782
0.213848
0.227011
0.237623
0.24177
0.237651
0.225141
0.206193
0.183197
0.158813
0.135129
0.1135
0.0945798
0.0786476
0.0654907
0.0545133
0.0453982
0.0378401
0.0315525
0.0262928
0.0218535
0.0180705
0.0148097
0.011957
0.00942324
0.0071284
0.0050023
0.00298893
0.00105564
-0.000808547
-0.00258862
-0.00427045
-0.00585016
-0.00730915
-0.00863686
-0.0098291
-0.0108796
-0.0118113
-0.0126404
-0.0133608
-0.0140143
-0.0146252
-0.0152042
-0.0157815
-0.0164109
-0.0171705
-0.0181656
-0.019532
-0.0214343
-0.0240326
-0.0273712
-0.0311729
-0.0346923
-0.0368688
6.9963e-08
3.35139e-05
0.00102233
0.0122726
0.0740484
0.167892
0.213848
0.222286
0.227724
0.242826
0.261127
0.275044
0.27974
0.274422
0.260357
0.239891
0.215701
0.190183
0.165202
0.142069
0.121469
0.103525
0.0880692
0.0748785
0.0636727
0.0541639
0.0460722
0.0391556
0.0332023
0.0280261
0.0234774
0.0194195
0.0157335
0.0123277
0.00914099
0.00614122
0.00332001
0.000681157
-0.00176818
-0.00399749
-0.00600534
-0.00779734
-0.00937583
-0.0107773
-0.0120242
-0.0131106
-0.0140957
-0.0150158
-0.0158854
-0.0167452
-0.0176661
-0.018746
-0.0201145
-0.0219274
-0.0243599
-0.0275545
-0.0314925
-0.0357955
-0.0396349
-0.0419502
1.40582e-07
6.40159e-05
0.00168233
0.0145403
0.0779265
0.176398
0.227012
0.227725
0.21615
0.218582
0.238058
0.264745
0.287509
0.300689
0.302845
0.294946
0.279089
0.257635
0.23297
0.207271
0.182245
0.158799
0.137423
0.118333
0.101543
0.0869169
0.0742341
0.0632608
0.0537521
0.0454694
0.0382104
0.0317816
0.0260071
0.0207485
0.0159093
0.0114276
0.00727216
0.00343077
-0.000103793
-0.00330245
-0.00615973
-0.00869626
-0.0109306
-0.0129154
-0.0146843
-0.0162364
-0.0176473
-0.0189704
-0.0202261
-0.0214661
-0.0227777
-0.0242774
-0.026115
-0.0284599
-0.031487
-0.0353091
-0.0398391
-0.04461
-0.0487386
-0.0511789
1.98031e-07
8.87522e-05
0.0021491
0.0154572
0.0764198
0.176544
0.237624
0.242826
0.218581
0.197676
0.199882
0.224559
0.258081
0.288297
0.30881
0.317925
0.31638
0.305947
0.28876
0.267078
0.243
0.21812
0.193608
0.170295
0.148717
0.129127
0.111574
0.0960024
0.082252
0.070125
0.0594122
0.0499003
0.0413747
0.0336577
0.0266216
0.0201701
0.0142481
0.00882151
0.00387313
-0.000605072
-0.00459378
-0.00810937
-0.0111961
-0.0139274
-0.0163548
-0.0184911
-0.0204267
-0.0222359
-0.0239502
-0.0256316
-0.0273813
-0.0293324
-0.0316503
-0.0345109
-0.0380822
-0.0424439
-0.0474504
-0.0525745
-0.0569124
-0.0594407
2.30142e-07
0.000102375
0.00232733
0.0151647
0.0713701
0.169163
0.241771
0.261126
0.238056
0.199881
0.17502
0.179383
0.208344
0.247211
0.283172
0.309641
0.324679
0.32882
0.323605
0.311009
0.293046
0.271522
0.24796
0.223653
0.199619
0.176579
0.154993
0.135141
0.117086
0.100808
0.0861812
0.0730469
0.0611983
0.0504607
0.0406889
0.0317628
0.0236108
0.0161765
0.00943565
0.00336086
-0.00207844
-0.00685572
-0.0110303
-0.0147025
-0.0179511
-0.0208119
-0.0233907
-0.0257856
-0.0280461
-0.030245
-0.0324944
-0.0349415
-0.0377633
-0.0411384
-0.0452258
-0.0500764
-0.0555022
-0.0609414
-0.0654845
-0.0681149
2.36335e-07
0.00010445
0.00222422
0.0139491
0.0643479
0.155862
0.237652
0.275042
0.264742
0.224557
0.179382
0.154267
0.160886
0.193011
0.235498
0.275646
0.306731
0.32665
0.335711
0.3353
0.327155
0.312983
0.29437
0.272772
0.249472
0.225546
0.201828
0.178965
0.157345
0.137223
0.118681
0.101697
0.0861533
0.0719434
0.0589491
0.0470521
0.0361884
0.0262873
0.0173297
0.00927045
0.0020533
-0.00434338
-0.00990791
-0.0147691
-0.0190432
-0.0228005
-0.0261661
-0.0292652
-0.0321705
-0.0349696
-0.0377833
-0.0407685
-0.0441124
-0.0479953
-0.0525701
-0.0578688
-0.0636808
-0.0694299
-0.0742025
-0.0769623
2.23908e-07
9.78478e-05
0.00191492
0.0121661
0.0566375
0.138677
0.225142
0.27974
0.287506
0.258078
0.208341
0.160884
0.136996
0.145703
0.179782
0.224519
0.267532
0.302118
0.325984
0.339255
0.343103
0.338984
0.328391
0.312739
0.29337
0.271505
0.248199
0.224371
0.200717
0.177792
0.155936
0.135351
0.116108
0.0982232
0.0816837
0.0664136
0.0524005
0.0395861
0.0279739
0.0175119
0.00813638
-0.000226923
-0.00755979
-0.0139187
-0.0194689
-0.02433
-0.0286545
-0.0325966
-0.0362596
-0.039751
-0.0431988
-0.0467662
-0.0506503
-0.0550358
-0.0600763
-0.0657996
-0.07199
-0.0780697
-0.0831108
-0.0860322
2.02303e-07
8.65269e-05
0.00149587
0.010173
0.0492329
0.120033
0.206192
0.27442
0.300684
0.288293
0.247207
0.193008
0.145701
0.123746
0.134001
0.169064
0.214946
0.259806
0.296993
0.324052
0.340887
0.348399
0.347838
0.340509
0.327688
0.310589
0.290333
0.267945
0.24432
0.220242
0.196294
0.172925
0.150446
0.129061
0.108925
0.0900758
0.0725992
0.0564973
0.0418202
0.0285402
0.0165987
0.00591683
-0.00358978
-0.0118306
-0.0189661
-0.0251831
-0.0306748
-0.0356252
-0.040177
-0.0444639
-0.0486222
-0.0528197
-0.0572648
-0.0621534
-0.0676503
-0.0737927
-0.0803763
-0.0868206
-0.0921725
-0.0952831
1.79359e-07
7.38497e-05
0.00104664
0.00822621
0.0426687
0.101791
0.183195
0.260354
0.302841
0.308807
0.28317
0.235496
0.179781
0.134
0.11408
0.125393
0.160698
0.206946
0.252899
0.292006
0.321641
0.341442
0.352083
0.354627
0.350226
0.340022
0.325093
0.306467
0.285083
0.26184
0.237488
0.21267
0.187923
0.163668
0.140261
0.117915
0.0968803
0.0772623
0.0592048
0.0427352
0.0278321
0.0144383
0.00243837
-0.00814932
-0.017249
-0.0251258
-0.0320339
-0.0381876
-0.0437804
-0.0489812
-0.053937
-0.0588222
-0.0638585
-0.0692618
-0.0752222
-0.0817983
-0.0888063
-0.0956549
-0.101352
-0.104671
1.60053e-07
6.20427e-05
0.000620193
0.00649011
0.0371767
0.0852381
0.158812
0.239891
0.294946
0.317925
0.309642
0.275646
0.224518
0.169063
0.125392
0.107387
0.119325
0.154371
0.200457
0.246975
0.287482
0.319168
0.341429
0.354734
0.359977
0.35817
0.35032
0.337384
0.320276
0.299882
0.277015
0.252403
0.226767
0.200705
0.174762
0.149377
0.124983
0.101858
0.0802742
0.0603582
0.0421687
0.0256963
0.0108491
-0.00245539
-0.0139812
-0.0238846
-0.0325046
-0.040094
-0.0469062
-0.0531563
-0.059008
-0.0646506
-0.0703231
-0.0762727
-0.0827241
-0.0897696
-0.0972434
-0.104532
-0.110595
-0.114129
1.46509e-07
5.21301e-05
0.000241632
0.00503516
0.0327641
0.0709795
0.13513
0.215702
0.279092
0.316382
0.32468
0.306732
0.267533
0.214946
0.160698
0.119325
0.103004
0.115247
0.14972
0.195318
0.242036
0.283534
0.316844
0.341146
0.356719
0.364296
0.364755
0.358969
0.347788
0.332013
0.312435
0.289777
0.264846
0.238371
0.21106
0.183496
0.156326
0.130018
0.105001
0.0815572
0.0598753
0.0400165
0.0219725
0.00569796
-0.00876134
-0.0211413
-0.0318258
-0.0411259
-0.0493649
-0.0568206
-0.0636837
-0.0701722
-0.0765477
-0.0830979
-0.0900934
-0.0976631
-0.105647
-0.113401
-0.119831
-0.123573
1.38431e-07
4.41333e-05
-8.57052e-05
0.00388662
0.0294006
0.0591565
0.113498
0.190181
0.257635
0.30595
0.328821
0.326651
0.302119
0.259807
0.206947
0.154372
0.115247
0.100358
0.112676
0.146402
0.191319
0.237983
0.280163
0.314756
0.340753
0.35825
0.367825
0.370216
0.366172
0.356414
0.341643
0.322628
0.300087
0.274798
0.247544
0.219014
0.190006
0.161181
0.133127
0.106303
0.0810893
0.0576609
0.0361433
0.0165752
-0.00110091
-0.016516
-0.0296978
-0.0410432
-0.0509605
-0.0598045
-0.0678139
-0.0752501
-0.0824149
-0.089651
-0.0972686
-0.105431
-0.113967
-0.122194
-0.128976
-0.132905
1.34788e-07
3.77007e-05
-0.000369222
0.00301331
0.0269534
0.0495974
0.0945798
0.165201
0.232968
0.288759
0.323604
0.335712
0.325988
0.296996
0.252902
0.20046
0.149722
0.112677
0.0989769
0.111217
0.144108
0.188242
0.234675
0.277299
0.312907
0.340304
0.35941
0.370636
0.374569
0.371862
0.36319
0.349242
0.330634
0.308113
0.282428
0.254372
0.224763
0.194394
0.164035
0.134297
0.105763
0.0787696
0.053615
0.0304896
0.00942136
-0.00954857
-0.0257605
-0.039559
-0.0514646
-0.061924
-0.0712494
-0.0797657
-0.08783
-0.0958462
-0.104186
-0.113018
-0.122139
-0.13083
-0.137926
-0.14201
1.37623e-07
3.3134e-05
-0.000596609
0.00231738
0.0247691
0.0417723
0.0786506
0.142074
0.207278
0.267085
0.311016
0.335308
0.339262
0.324057
0.292009
0.246978
0.19532
0.146403
0.111216
0.0984844
0.110534
0.14256
0.185855
0.231946
0.274841
0.311229
0.339744
0.360102
0.372573
0.377702
0.376077
0.3683
0.354901
0.336542
0.313934
0.287856
0.259078
0.228441
0.196814
0.164938
0.133581
0.103286
0.0745197
0.0477028
0.022998
0.000333965
-0.019574
-0.0363323
-0.0506107
-0.0629696
-0.0738271
-0.0835945
-0.0927036
-0.101625
-0.11078
-0.12035
-0.13008
-0.139206
-0.146561
-0.150761
1.46939e-07
3.01381e-05
-0.000765483
0.00176277
0.0225046
0.0351828
0.065495
0.121475
0.182249
0.243009
0.293056
0.327161
0.343107
0.34089
0.321643
0.287484
0.242036
0.191318
0.144106
0.110532
0.0985622
0.110342
0.141492
0.183935
0.229608
0.272615
0.309544
0.338831
0.360113
0.373578
0.379664
0.378867
0.37167
0.358653
0.340437
0.317788
0.291327
0.261849
0.230262
0.197331
0.163958
0.130915
0.098826
0.0683697
0.0398977
0.0134805
-0.0105854
-0.0309372
-0.0480711
-0.062692
-0.0753589
-0.0866032
-0.096944
-0.106921
-0.116999
-0.127349
-0.137684
-0.1472
-0.154747
-0.159014
1.57521e-07
2.74887e-05
-0.00091478
0.00136996
0.0207185
0.0297376
0.054515
0.103527
0.158799
0.218119
0.271519
0.312982
0.338984
0.348399
0.341442
0.319167
0.283532
0.237979
0.188234
0.142552
0.110336
0.0989447
0.110388
0.14067
0.182257
0.227426
0.270345
0.307541
0.337381
0.359364
0.37357
0.380334
0.380045
0.373257
0.360545
0.342582
0.319842
0.293029
0.26292
0.230282
0.195988
0.16105
0.126253
0.0924647
0.0602784
0.0299935
0.00188305
-0.0228575
-0.0434529
-0.0607967
-0.0756317
-0.088638
-0.100444
-0.111659
-0.122771
-0.133936
-0.144831
-0.154659
-0.162325
-0.166615
1.6789e-07
2.4653e-05
-0.00105512
0.00111524
0.0194181
0.0253303
0.0453987
0.0880696
0.137421
0.193601
0.247955
0.294367
0.328389
0.347836
0.352081
0.341426
0.316841
0.280157
0.234668
0.185842
0.14148
0.110379
0.0993918
0.110443
0.139859
0.180544
0.225081
0.267755
0.305048
0.335223
0.357659
0.3723
0.379413
0.379522
0.373206
0.360975
0.343188
0.320424
0.293232
0.262322
0.228468
0.192778
0.156175
0.119699
0.0841173
0.050065
0.0180316
-0.0114561
-0.0362833
-0.0569375
-0.0743969
-0.0895254
-0.103079
-0.115737
-0.128
-0.140006
-0.151408
-0.16145
-0.169142
-0.173401
1.79007e-07
2.19642e-05
-0.00118306
0.000949005
0.0183951
0.0216851
0.037839
0.0748772
0.118332
0.170293
0.223651
0.272771
0.312737
0.340509
0.354626
0.354732
0.341142
0.314749
0.277291
0.231933
0.183921
0.140662
0.110441
0.0996946
0.110278
0.138789
0.178524
0.222336
0.26461
0.301802
0.332063
0.35463
0.369409
0.376878
0.377615
0.371949
0.360173
0.34261
0.31965
0.291902
0.26
0.224925
0.187703
0.149468
0.111136
0.0736984
0.0378296
0.00402434
-0.0259814
-0.0506985
-0.0713632
-0.0890596
-0.104696
-0.119025
-0.132559
-0.145421
-0.157272
-0.167431
-0.175064
-0.179244
1.90866e-07
1.94366e-05
-0.00130018
0.000844602
0.0175647
0.0186295
0.0315502
0.0636719
0.101546
0.148719
0.19962
0.249474
0.293369
0.327687
0.350225
0.359976
0.356716
0.340748
0.312901
0.274831
0.229598
0.182249
0.139859
0.110275
0.0996139
0.109653
0.137218
0.175918
0.21887
0.260576
0.297435
0.327366
0.349886
0.365169
0.373519
0.375062
0.369891
0.358364
0.340792
0.317537
0.289031
0.256076
0.219648
0.180854
0.14077
0.10061
0.0612811
0.0234971
-0.0118358
-0.0415732
-0.0661747
-0.0869878
-0.1051
-0.121354
-0.136281
-0.150006
-0.162244
-0.17244
-0.179936
-0.183995
2.03232e-07
1.70035e-05
-0.00140888
0.000782633
0.016872
0.0160342
0.0262909
0.0541629
0.0869167
0.129128
0.17658
0.225547
0.271506
0.310589
0.340022
0.358169
0.364294
0.358247
0.3403
0.311224
0.272606
0.22742
0.180542
0.138785
0.109651
0.0989364
0.10833
0.134817
0.172337
0.214293
0.255058
0.291207
0.321095
0.344323
0.360593
0.369825
0.371947
0.367138
0.355635
0.337745
0.313944
0.284651
0.250494
0.212638
0.172108
0.130237
0.0881149
0.0467173
0.00693034
-0.0289361
-0.0583899
-0.0829879
-0.104041
-0.122503
-0.138952
-0.153549
-0.166127
-0.17629
-0.183593
-0.187503
2.15846e-07
1.46043e-05
-0.00151103
0.000749258
0.0162791
0.0137975
0.0218531
0.046072
0.0742341
0.111574
0.154993
0.201829
0.248202
0.29033
0.325088
0.350317
0.364753
0.367822
0.359406
0.339739
0.309535
0.270337
0.225074
0.178515
0.137212
0.108328
0.0973404
0.105832
0.131042
0.167162
0.207686
0.247574
0.283474
0.314121
0.338227
0.355295
0.365226
0.367871
0.363394
0.351844
0.333535
0.308973
0.278695
0.243393
0.203889
0.161615
0.117757
0.0734331
0.0297901
-0.0120062
-0.0474451
-0.076646
-0.101189
-0.122185
-0.140302
-0.155804
-0.168687
-0.178774
-0.185848
-0.189587
2.28462e-07
1.21899e-05
-0.00160818
0.000732693
0.0157561
0.0118408
0.01807
0.0391554
0.0632618
0.0960022
0.135139
0.178959
0.224365
0.267944
0.306462
0.337381
0.358968
0.370214
0.370633
0.360098
0.338826
0.307534
0.267749
0.222324
0.175909
0.134813
0.105831
0.0941667
0.101522
0.125149
0.159763
0.198913
0.238503
0.275186
0.306518
0.331198
0.348783
0.359187
0.362415
0.358339
0.346847
0.328199
0.302769
0.271314
0.234674
0.193568
0.149314
0.103089
0.0562494
0.00997914
-0.032618
-0.0674181
-0.0961154
-0.120031
-0.139999
-0.156464
-0.169652
-0.179646
-0.186483
-0.19004
2.40912e-07
9.7477e-06
-0.00170107
0.000725078
0.0152819
0.0101027
0.0148056
0.0331973
0.0537458
0.0822466
0.117083
0.157342
0.200717
0.244326
0.285091
0.320283
0.347792
0.366173
0.374568
0.37257
0.360108
0.337377
0.305047
0.264605
0.218865
0.172334
0.131041
0.101522
0.0888637
0.094973
0.11703
0.149887
0.188976
0.229007
0.266259
0.298103
0.323266
0.341269
0.35198
0.3555
0.35174
0.340527
0.32162
0.295481
0.262677
0.224433
0.181542
0.134767
0.0858067
0.0360198
-0.0129891
-0.0545944
-0.0882482
-0.115563
-0.137627
-0.155168
-0.168704
-0.17864
-0.185254
-0.188644
2.53005e-07
7.25934e-06
-0.00179052
0.000719188
0.0148398
0.00853673
0.011954
0.0280233
0.0454678
0.0701229
0.100805
0.137226
0.177791
0.220236
0.261843
0.299895
0.332022
0.356416
0.371864
0.377702
0.373578
0.359364
0.335221
0.301797
0.26057
0.21429
0.16716
0.125152
0.0949752
0.081498
0.0854877
0.105772
0.138215
0.17759
0.21841
0.256486
0.289052
0.314705
0.333011
0.343937
0.347507
0.343808
0.332731
0.313856
0.287064
0.252922
0.212717
0.167354
0.117641
0.065459
0.0122872
-0.0372537
-0.0768466
-0.108164
-0.132668
-0.151473
-0.165474
-0.175436
-0.181881
-0.185143
2.64616e-07
4.73944e-06
-0.00187673
0.000709506
0.0144158
0.00710087
0.00941939
0.0234735
0.0382071
0.0594103
0.0861804
0.118683
0.155941
0.196295
0.237494
0.277026
0.312449
0.341662
0.36321
0.376089
0.37967
0.373574
0.35766
0.332063
0.297435
0.255058
0.207687
0.159769
0.117034
0.0854904
0.0697896
0.0722127
0.0916792
0.124516
0.164702
0.206565
0.245657
0.279211
0.305677
0.324394
0.335377
0.338839
0.334877
0.323635
0.304905
0.277398
0.241849
0.199142
0.150702
0.0975572
0.0417459
-0.014224
-0.0609507
-0.0970536
-0.12448
-0.144853
-0.159536
-0.169654
-0.176041
-0.179223
2.75598e-07
2.19663e-06
-0.00196001
0.000690452
0.0139964
0.00575955
0.00712237
0.0194123
0.0317749
0.0498955
0.0730445
0.101697
0.135355
0.172932
0.212686
0.252429
0.289806
0.322651
0.349257
0.368301
0.378867
0.380336
0.372302
0.35463
0.327364
0.291201
0.24757
0.198914
0.14989
0.105772
0.0722157
0.0544063
0.0557465
0.0754627
0.109127
0.150563
0.193765
0.234144
0.268799
0.296106
0.315432
0.326561
0.329725
0.325378
0.313677
0.294332
0.266427
0.229165
0.183278
0.131321
0.0744227
0.0154568
-0.0393382
-0.0812345
-0.112262
-0.134657
-0.150333
-0.160837
-0.167331
-0.170507
2.85733e-07
-3.84482e-07
-0.00204114
0.000655327
0.0135691
0.00448134
0.00499645
0.0157278
0.0260023
0.0413727
0.0612015
0.0861593
0.116117
0.150462
0.187955
0.226808
0.264897
0.300133
0.330679
0.354938
0.371689
0.380052
0.379419
0.369412
0.349884
0.321092
0.283473
0.238502
0.188978
0.138222
0.0916825
0.0557342
0.0365301
0.0374592
0.0576679
0.0925344
0.13553
0.180366
0.222244
0.258072
0.286208
0.306059
0.317444
0.320381
0.315329
0.302779
0.282577
0.254034
0.214385
0.165048
0.109363
0.0495127
-0.0104903
-0.0594403
-0.0949831
-0.12005
-0.137183
-0.14842
-0.15525
-0.158537
2.94804e-07
-3.01991e-06
-0.00212092
0.000597792
0.0131224
0.00323995
0.00298491
0.0123245
0.0207468
0.0336584
0.0504652
0.0719531
0.09824
0.129087
0.163702
0.200759
0.238434
0.274862
0.308151
0.33659
0.358682
0.373268
0.379536
0.376888
0.365173
0.344327
0.314128
0.275191
0.229003
0.177588
0.124507
0.0754482
0.037455
0.0170514
0.0178057
0.0388323
0.0752002
0.120024
0.166689
0.210135
0.247175
0.276126
0.296373
0.307804
0.310457
0.304566
0.290821
0.269719
0.239985
0.197592
0.14491
0.0865182
0.0259644
-0.0300996
-0.0713399
-0.0999721
-0.119213
-0.131657
-0.139122
-0.142675
3.02652e-07
-5.70412e-06
-0.00219957
0.000514888
0.0126527
0.0020237
0.0010569
0.00914475
0.0159163
0.0266312
0.0407015
0.0589626
0.0816985
0.108938
0.140269
0.17477
0.211066
0.247557
0.282444
0.313955
0.340468
0.36056
0.373214
0.377621
0.373522
0.360601
0.338236
0.306522
0.266257
0.218409
0.164699
0.109119
0.0576764
0.0178232
-0.0035472
-0.00270652
0.0193993
0.0575306
0.104376
0.152933
0.197979
0.236166
0.265819
0.286289
0.297424
0.29954
0.292795
0.27786
0.255832
0.224581
0.179563
0.124813
0.0661287
0.00853573
-0.0396844
-0.0730448
-0.0952785
-0.10955
-0.118065
-0.122111
3.09221e-07
-8.39952e-06
-0.00227658
0.000407341
0.0121629
0.000830794
-0.000802023
0.00614934
0.0114377
0.0201821
0.0317748
0.0470626
0.0664231
0.0900829
0.117918
0.149382
0.183505
0.219009
0.254358
0.287841
0.317759
0.342568
0.360959
0.371957
0.375082
0.36985
0.355312
0.331207
0.298105
0.256489
0.206573
0.150577
0.0925639
0.0388747
-0.00267492
-0.0236882
-0.0226245
-0.00026431
0.039812
0.0887474
0.139231
0.185775
0.22493
0.255062
0.275459
0.286154
0.287493
0.279807
0.264014
0.241398
0.208807
0.162316
0.108032
0.0527086
0.00200162
-0.0374647
-0.063814
-0.0807655
-0.0908971
-0.0956824
3.14525e-07
-1.10574e-05
-0.00235114
0.000278396
0.01166
-0.000332493
-0.00258286
0.00332593
0.00727839
0.0142547
0.0236177
0.0361951
0.0524058
0.0726056
0.0968899
0.124997
0.156352
0.19003
0.2248
0.259137
0.291375
0.319893
0.343232
0.360234
0.369946
0.371976
0.365245
0.348787
0.323262
0.289052
0.245668
0.193782
0.135572
0.0752579
0.0194476
-0.0226049
-0.0425213
-0.0411161
-0.0191574
0.022139
0.0731525
0.125448
0.173257
0.213135
0.243408
0.263537
0.273633
0.274107
0.265789
0.249898
0.227622
0.194664
0.148886
0.098569
0.0502976
0.00886019
-0.0227716
-0.0434542
-0.0559262
-0.0618153
3.18662e-07
-1.35924e-05
-0.00242133
0.000134621
0.0111563
-0.00144465
-0.00426806
0.000684898
0.00343659
0.00883056
0.01619
0.0263066
0.0396132
0.0565338
0.0773111
0.101916
0.130076
0.161238
0.194482
0.22853
0.261919
0.293062
0.320413
0.342601
0.358344
0.367112
0.367849
0.359165
0.341243
0.314689
0.279208
0.234159
0.180389
0.120056
0.057564
-0.000251402
-0.0411265
-0.0599504
-0.0582218
-0.0366635
0.00440991
0.0573468
0.111154
0.159923
0.20024
0.230466
0.250194
0.259649
0.259627
0.251457
0.236821
0.216391
0.18482
0.142625
0.0994843
0.0604548
0.0286669
0.00480149
-0.0108137
-0.0182617
3.21798e-07
-1.59421e-05
-0.00248616
-1.65618e-05
0.0106662
-0.00249064
-0.00584569
-0.00176065
-9.22897e-05
0.00388921
0.00945759
0.0173583
0.02801
0.0418681
0.0592639
0.0803454
0.105085
0.133214
0.164125
0.196907
0.230316
0.262933
0.293204
0.319614
0.340752
0.355595
0.363354
0.362357
0.351927
0.332969
0.305646
0.268775
0.222235
0.166691
0.104384
0.0397934
-0.0191852
-0.0582363
-0.0760996
-0.0741649
-0.0531523
-0.0134547
0.0406802
0.0957032
0.145173
0.185723
0.215828
0.235223
0.24453
0.244899
0.238205
0.226589
0.209897
0.1818
0.14588
0.111703
0.0822941
0.0592019
0.0433906
0.0353707
3.24165e-07
-1.80147e-05
-0.00254377
-0.000165701
0.0102066
-0.00345043
-0.0072957
-0.00397948
-0.00327993
-0.000577569
0.00339336
0.00930801
0.0175543
0.0285852
0.042782
0.0604061
0.0816046
0.106346
0.134331
0.16498
0.197387
0.2303
0.262282
0.291814
0.317446
0.337639
0.351742
0.358221
0.355384
0.343858
0.324336
0.296056
0.258038
0.210114
0.152917
0.0887214
0.0221006
-0.0366998
-0.0741817
-0.0913207
-0.0894263
-0.0692531
-0.0313611
0.0223213
0.0782641
0.128319
0.169144
0.19932
0.218975
0.229145
0.231336
0.227805
0.221107
0.209667
0.186883
0.158944
0.134021
0.113504
0.0985644
0.0907883
3.25913e-07
-1.9762e-05
-0.00259316
-0.000306517
0.00978802
-0.00431462
-0.00861121
-0.00597515
-0.00612587
-0.00455748
-0.002041
0.00209013
0.00817001
0.0166257
0.027851
0.0421759
0.0598667
0.0810655
0.105724
0.133548
0.163952
0.196015
0.228506
0.259989
0.288932
0.313813
0.333404
0.346696
0.351607
0.347391
0.335285
0.315367
0.28616
0.247143
0.19795
0.139187
0.0731027
0.00434617
-0.0531949
-0.0894421
-0.106176
-0.104655
-0.0856957
-0.0500314
0.00120515
0.0580727
0.10887
0.150319
0.181342
0.202456
0.214986
0.220751
0.222179
0.221416
0.215802
0.200143
0.180774
0.163962
0.151712
0.145122
3.27043e-07
-2.11882e-05
-0.00263455
-0.000439354
0.0094087
-0.00508841
-0.00980304
-0.0077689
-0.00866616
-0.00807897
-0.00682629
-0.0043164
-0.000203687
0.00593528
0.0144499
0.0256964
0.0400064
0.0576509
0.0787599
0.103265
0.130889
0.161011
0.192733
0.224873
0.255978
0.284549
0.308848
0.328075
0.340416
0.343692
0.338735
0.326488
0.306001
0.276085
0.236129
0.185721
0.125375
0.0572579
-0.0135228
-0.0692734
-0.104645
-0.12132
-0.120513
-0.103135
-0.0700297
-0.0224969
0.0345298
0.086681
0.129748
0.163037
0.187235
0.203987
0.215066
0.222291
0.227739
0.228143
0.21964
0.208805
0.199615
0.194314
3.27568e-07
-2.22992e-05
-0.00266803
-0.000562872
0.00907133
-0.0057697
-0.01087
-0.00936625
-0.0109205
-0.0111853
-0.0110183
-0.00989435
-0.00754435
-0.00357166
0.00245967
0.0108721
0.021997
0.0361686
0.0536437
0.0745616
0.0988755
0.12628
0.156206
0.187774
0.219709
0.250548
0.278704
0.302747
0.32157
0.332649
0.334793
0.32965
0.317373
0.296318
0.265769
0.224861
0.173177
0.111072
0.0406398
-0.0313535
-0.0856554
-0.120488
-0.1374
-0.137587
-0.121988
-0.091546
-0.0475902
0.00762232
0.062426
0.108864
0.146304
0.175542
0.198091
0.2154
0.228752
0.239134
0.244438
0.243612
0.24003
0.237633
3.27586e-07
-2.30642e-05
-0.00269304
-0.000674276
0.00877949
-0.00635854
-0.0118181
-0.010785
-0.0129228
-0.0139338
-0.0147064
-0.0147688
-0.0139127
-0.0118166
-0.00812481
-0.00241788
0.00574718
0.0166321
0.0305585
0.047783
0.0684491
0.0925431
0.119779
0.149575
0.180996
0.21279
0.243525
0.271393
0.295472
0.313814
0.323581
0.325314
0.320308
0.307742
0.286234
0.255012
0.213082
0.159893
0.0956995
0.0223658
-0.0499462
-0.103071
-0.137563
-0.154843
-0.156097
-0.142279
-0.114288
-0.0732462
-0.0207586
0.0379463
0.0899442
0.133635
0.16952
0.198848
0.222571
0.240974
0.255378
0.264414
0.269021
0.271084
3.27055e-07
-2.34943e-05
-0.00270972
-0.000773945
0.00853249
-0.00685629
-0.0126518
-0.0120367
-0.014697
-0.016367
-0.0179613
-0.0190502
-0.019471
-0.0189612
-0.017235
-0.0139559
-0.00872378
-0.00104928
0.00948376
0.0230657
0.0399756
0.0603697
0.0842245
0.111265
0.140905
0.172246
0.204034
0.234838
0.262806
0.287134
0.304927
0.313657
0.315274
0.310394
0.297366
0.275405
0.243362
0.200202
0.145163
0.0782988
0.00129432
-0.0699669
-0.121968
-0.156112
-0.173698
-0.175882
-0.163482
-0.137206
-0.0978089
-0.0461664
0.0161814
0.0760455
0.127532
0.17101
0.206949
0.236078
0.258445
0.274834
0.285492
0.290705
3.25941e-07
-2.36303e-05
-0.002719
-0.00086424
0.00832786
-0.00726498
-0.0133716
-0.0131224
-0.0162482
-0.0185023
-0.0208219
-0.0228088
-0.0243358
-0.0251849
-0.0251218
-0.023873
-0.0211197
-0.0164818
-0.00949924
0.000401577
0.0135632
0.0300885
0.0501676
0.0738031
0.100711
0.13033
0.161731
0.193707
0.224593
0.25303
0.277444
0.294338
0.302744
0.30452
0.299494
0.286106
0.263491
0.230422
0.185688
0.128291
0.058074
-0.0224895
-0.0915617
-0.142291
-0.175896
-0.193533
-0.19617
-0.184427
-0.158664
-0.119132
-0.0659315
0.00103638
0.0702437
0.130047
0.180182
0.221091
0.253296
0.276933
0.292361
0.299975
3.24129e-07
-2.34638e-05
-0.00272092
-0.000950681
0.00815014
-0.00761319
-0.0140238
-0.0141056
-0.0176568
-0.0204351
-0.0233977
-0.026171
-0.0286565
-0.0306728
-0.0320267
-0.0324901
-0.0318028
-0.0296648
-0.0257162
-0.0195169
-0.0105142
0.00196694
0.0181194
0.0379168
0.0613573
0.0882118
0.117891
0.149455
0.181704
0.212844
0.241934
0.266472
0.282582
0.290801
0.292754
0.287441
0.273572
0.250124
0.215732
0.16902
0.108783
0.0344705
-0.0476548
-0.114317
-0.163494
-0.196163
-0.213236
-0.215543
-0.203295
-0.176539
-0.134846
-0.0775168
-0.00353349
0.0747572
0.141183
0.195327
0.237818
0.269111
0.289664
0.300012
3.21539e-07
-2.30214e-05
-0.00271607
-0.001037
0.00799319
-0.00791249
-0.0146303
-0.0150213
-0.0189754
-0.0222401
-0.0257883
-0.0292652
-0.0325935
-0.0356186
-0.0381771
-0.0400789
-0.0411056
-0.0410173
-0.0395264
-0.0362901
-0.0308842
-0.022792
-0.0113793
0.00411068
0.0235872
0.0467876
0.0734919
0.103163
0.134859
0.167461
0.199204
0.229227
0.254062
0.269708
0.277819
0.279745
0.27403
0.259552
0.235089
0.199174
0.150167
0.0865747
0.00754117
-0.0732981
-0.137219
-0.184403
-0.215494
-0.231259
-0.232125
-0.218039
-0.188423
-0.14242
-0.0784832
0.00490474
0.0893972
0.158527
0.212468
0.251869
0.277659
0.290637
3.17996e-07
-2.23577e-05
-0.00270559
-0.00112903
0.00784737
-0.00817385
-0.0152046
-0.0158859
-0.020226
-0.0239492
-0.0280441
-0.0321671
-0.0362549
-0.0401712
-0.0437736
-0.0468985
-0.0493558
-0.0509488
-0.0514479
-0.0505874
-0.0480383
-0.0434083
-0.0362227
-0.0259005
-0.0117367
0.00703524
0.0298901