/*--------------------------------*- C++ -*----------------------------------*\
| =========                 |                                                 |
| \\      /  F ield         | OpenFOAM: The Open Source CFD Toolbox           |
|  \\    /   O peration     | Version:  2212                                  |
|   \\  /    A nd           | Website:  www.openfoam.com                      |
|    \\/     M anipulation  |                                                 |
\*---------------------------------------------------------------------------*/
FoamFile
{
    version     2.0;
    format      ascii;
    arch        "LSB;label=32;scalar=64";
    class       volScalarField;
    location    "1";
    object      theta1_Scaled_;
}
// * * * * * * * * * * * * * * * * * * * * * * * * * * * * * * * * * * * * * //

dimensions      [0 0 0 0 0 0 0];

internalField   nonuniform List<scalar> 
3600
(
1.5888e-05
7.76336e-05
0.000208272
0.000417497
0.00071631
0.00111238
0.00160129
0.00216012
0.00275273
0.00334097
0.00389567
0.00440086
0.00485307
0.00525718
0.0056222
0.00595783
0.00627244
0.00657208
0.00686075
0.00714138
0.00741536
0.0076821
0.00794126
0.00819314
0.00843767
0.00867446
0.00890292
0.00912234
0.00933199
0.00953111
0.00971885
0.00989431
0.0100565
0.0102044
0.010337
0.010454
0.0105552
0.0106411
0.0107121
0.010769
0.0108129
0.0108443
0.0108641
0.0108724
0.0108691
0.0108548
0.0108281
0.0107885
0.0107352
0.0106669
0.0105818
0.0104775
0.0103504
0.0101966
0.0100118
0.0097933
0.00954494
0.00928469
0.00905349
0.00891147
7.76336e-05
0.00245536
0.00857018
0.0162384
0.0264797
0.0396367
0.0552665
0.0722328
0.089312
0.105487
0.120135
0.133033
0.144256
0.154044
0.162691
0.170473
0.177615
0.184278
0.190567
0.196557
0.202289
0.207769
0.213002
0.218005
0.222784
0.227341
0.231673
0.235775
0.239642
0.243269
0.246648
0.249771
0.252629
0.25521
0.257507
0.259518
0.261248
0.262704
0.263902
0.264861
0.265595
0.266122
0.266452
0.266591
0.266538
0.266299
0.265854
0.265192
0.264299
0.263149
0.261712
0.259937
0.257761
0.255104
0.251876
0.248015
0.243562
0.238825
0.234555
0.231903
0.000208272
0.00857018
0.0634823
0.145714
0.219881
0.289079
0.352557
0.407076
0.452045
0.488255
0.517112
0.540099
0.558562
0.57362
0.586155
0.596832
0.60613
0.614383
0.621818
0.62859
0.634798
0.640518
0.645802
0.650695
0.655232
0.659438
0.663333
0.666934
0.670253
0.673301
0.676087
0.678618
0.680896
0.682925
0.684707
0.68625
0.687565
0.68866
0.689553
0.690263
0.690804
0.69119
0.691431
0.691533
0.691494
0.691318
0.690993
0.690508
0.689851
0.689001
0.68793
0.686596
0.68494
0.682889
0.680354
0.677256
0.673596
0.669597
0.6659
0.663559
0.000417497
0.0162384
0.145714
0.394165
0.554305
0.633096
0.677665
0.706703
0.727562
0.743432
0.755911
0.765917
0.774039
0.780705
0.78624
0.790902
0.794887
0.798351
0.801402
0.80413
0.806596
0.808835
0.810878
0.812748
0.814463
0.816037
0.817482
0.818808
0.82002
0.821127
0.822133
0.82304
0.823853
0.824574
0.825203
0.825745
0.826204
0.826583
0.826888
0.827129
0.82731
0.827436
0.827514
0.827544
0.827529
0.827464
0.827352
0.827186
0.826961
0.82667
0.826302
0.825841
0.825264
0.824539
0.823631
0.822501
0.821141
0.819629
0.818211
0.817304
0.000716311
0.0264798
0.219881
0.554305
0.728659
0.788277
0.809499
0.818531
0.823557
0.827366
0.830857
0.834266
0.83752
0.840518
0.843186
0.845507
0.847501
0.849213
0.85069
0.852003
0.8532
0.854267
0.855226
0.856091
0.856874
0.857583
0.858227
0.858812
0.859344
0.859824
0.860257
0.860645
0.86099
0.861292
0.861553
0.861774
0.861957
0.862106
0.862221
0.862308
0.86237
0.862409
0.862429
0.862432
0.862419
0.862384
0.862336
0.862266
0.862175
0.862058
0.86191
0.86172
0.861478
0.861165
0.860758
0.860232
0.859575
0.858823
0.858102
0.857636
0.00111238
0.0396368
0.289079
0.633097
0.788277
0.838424
0.854091
0.858048
0.857892
0.85688
0.856346
0.856671
0.857683
0.859136
0.860742
0.86231
0.863734
0.864973
0.866031
0.866935
0.867712
0.868379
0.868961
0.869472
0.869921
0.870319
0.870673
0.87099
0.871274
0.871526
0.871751
0.871949
0.872121
0.87227
0.872394
0.872496
0.872576
0.872636
0.872678
0.872703
0.872717
0.872717
0.872711
0.872696
0.872677
0.872647
0.872615
0.872576
0.872527
0.872467
0.87239
0.87229
0.872159
0.871981
0.871737
0.871409
0.870984
0.870489
0.870013
0.869705
0.0016013
0.0552666
0.352557
0.677665
0.8095
0.854091
0.869587
0.873387
0.872306
0.869769
0.867414
0.865924
0.865404
0.865716
0.866524
0.867586
0.868701
0.869745
0.870664
0.87144
0.872077
0.872603
0.873044
0.873412
0.87372
0.873984
0.874209
0.874403
0.874571
0.874715
0.87484
0.874946
0.875033
0.875105
0.875161
0.875203
0.87523
0.875244
0.875245
0.875235
0.87522
0.875195
0.875168
0.875137
0.87511
0.875073
0.875041
0.875008
0.874972
0.87493
0.874878
0.874811
0.874719
0.874589
0.874405
0.874151
0.873823
0.873447
0.873096
0.872876
0.00216013
0.072233
0.407077
0.706703
0.818531
0.858048
0.873388
0.878023
0.877602
0.875144
0.872257
0.869816
0.868218
0.867519
0.867557
0.868083
0.868877
0.869755
0.870601
0.87136
0.872008
0.872547
0.872991
0.873352
0.873644
0.873882
0.874075
0.874234
0.874364
0.87447
0.874556
0.874624
0.874675
0.874713
0.874738
0.87475
0.874751
0.874739
0.874718
0.874687
0.874651
0.874608
0.874564
0.874515
0.874474
0.874423
0.87438
0.874338
0.874297
0.87425
0.874194
0.874124
0.874029
0.873897
0.873712
0.873465
0.873161
0.872836
0.872556
0.872394
0.00275274
0.0893123
0.452046
0.727563
0.823557
0.857893
0.872306
0.877603
0.878196
0.876512
0.873892
0.871193
0.868965
0.86748
0.866781
0.866735
0.867162
0.867844
0.86863
0.869415
0.870141
0.870775
0.871315
0.871757
0.872118
0.872409
0.872639
0.872823
0.872969
0.87308
0.873165
0.873229
0.873272
0.873299
0.873312
0.873312
0.8733
0.873274
0.873239
0.873194
0.873142
0.873082
0.873019
0.872952
0.872891
0.872822
0.872759
0.872697
0.872637
0.872569
0.87249
0.872396
0.872272
0.872107
0.871887
0.871612
0.871299
0.871001
0.870777
0.870667
0.00334099
0.105487
0.488256
0.743433
0.827366
0.856881
0.86977
0.875145
0.876512
0.875777
0.873896
0.871506
0.869126
0.867152
0.86581
0.86515
0.86509
0.865469
0.866113
0.866882
0.867676
0.868428
0.869104
0.869683
0.87017
0.870572
0.870891
0.871149
0.871348
0.871501
0.871613
0.871695
0.871748
0.871775
0.871787
0.871781
0.871763
0.871726
0.87168
0.87162
0.871554
0.871476
0.871393
0.871305
0.871219
0.871127
0.871037
0.870948
0.870858
0.870758
0.870645
0.870511
0.870343
0.870127
0.869857
0.86954
0.869213
0.868943
0.868783
0.86873
0.00389569
0.120135
0.517113
0.755911
0.830857
0.856346
0.867414
0.872257
0.873892
0.873896
0.872883
0.87118
0.869116
0.867049
0.865297
0.864073
0.863446
0.863372
0.863721
0.864354
0.865134
0.865963
0.866766
0.867501
0.868149
0.868701
0.869155
0.869528
0.86982
0.870047
0.870213
0.870334
0.870408
0.87045
0.870469
0.870461
0.870439
0.87039
0.870333
0.870259
0.870175
0.870078
0.86997
0.869856
0.869742
0.869621
0.869497
0.869375
0.869247
0.869108
0.86895
0.868766
0.868542
0.868267
0.867939
0.86758
0.867245
0.867017
0.866934
0.866946
0.00440088
0.133033
0.5401
0.765918
0.834267
0.856671
0.865924
0.869815
0.871192
0.871506
0.87118
0.870271
0.868846
0.867097
0.865299
0.863732
0.8626
0.861998
0.861904
0.862232
0.862857
0.863656
0.864524
0.865385
0.86619
0.866912
0.867532
0.868055
0.868475
0.868808
0.86906
0.869243
0.869359
0.869428
0.869463
0.869458
0.869433
0.869371
0.869301
0.86921
0.869105
0.868984
0.868847
0.868702
0.868555
0.8684
0.868237
0.868076
0.867903
0.867717
0.867506
0.867265
0.866979
0.86664
0.866254
0.86586
0.865534
0.865366
0.865375
0.865458
0.0048531
0.144257
0.558563
0.774039
0.83752
0.857683
0.865404
0.868218
0.868964
0.869126
0.869116
0.868846
0.868152
0.867
0.865521
0.863948
0.862533
0.861478
0.86089
0.86078
0.861086
0.861702
0.862516
0.863422
0.864341
0.865218
0.866009
0.866703
0.867283
0.867757
0.868125
0.868397
0.868581
0.868695
0.868761
0.868767
0.868743
0.86867
0.868587
0.868475
0.868346
0.868198
0.868027
0.867846
0.867659
0.867466
0.867257
0.86705
0.866828
0.866586
0.866318
0.866014
0.865663
0.86526
0.864823
0.864408
0.86411
0.864022
0.864132
0.864289
0.00525721
0.154045
0.573621
0.780705
0.840517
0.859136
0.865714
0.867518
0.867479
0.867151
0.867048
0.867097
0.867
0.866521
0.8656
0.864343
0.862956
0.861672
0.860683
0.86011
0.859985
0.860268
0.860874
0.861698
0.862638
0.863612
0.864554
0.865417
0.866173
0.866813
0.867328
0.867721
0.868003
0.868189
0.868303
0.868337
0.868322
0.868246
0.868149
0.868019
0.867865
0.867684
0.867475
0.867254
0.867024
0.866785
0.866526
0.866267
0.865992
0.865688
0.865357
0.864988
0.864571
0.86411
0.863632
0.863213
0.862964
0.86297
0.863188
0.863418
0.00562223
0.162692
0.586156
0.786241
0.843185
0.860741
0.866523
0.867556
0.86678
0.865809
0.865296
0.865299
0.865521
0.8656
0.865299
0.864564
0.863488
0.862256
0.861083
0.860155
0.859598
0.859461
0.859724
0.860318
0.86115
0.862123
0.863145
0.864146
0.865068
0.865883
0.866569
0.867114
0.867526
0.867815
0.868004
0.868085
0.868098
0.868031
0.86793
0.867784
0.867603
0.867392
0.867144
0.866878
0.866602
0.866313
0.866
0.865685
0.865353
0.864983
0.864586
0.864151
0.863671
0.86316
0.862655
0.862252
0.862072
0.862183
0.862509
0.862807
0.00595786
0.170474
0.596833
0.790902
0.845507
0.862309
0.867586
0.868082
0.866735
0.865149
0.864073
0.863732
0.863948
0.864343
0.864564
0.864401
0.86381
0.862878
0.861775
0.860697
0.859824
0.859284
0.85914
0.859387
0.859973
0.860814
0.861812
0.862876
0.863923
0.864898
0.865758
0.866469
0.867036
0.867457
0.867744
0.867901
0.867962
0.867925
0.867836
0.867686
0.867488
0.867252
0.866968
0.866657
0.866334
0.865995
0.865626
0.865253
0.864864
0.864427
0.863962
0.863466
0.862932
0.862383
0.86187
0.861503
0.861407
0.861628
0.862057
0.862416
0.00627247
0.177616
0.60613
0.794888
0.847502
0.863734
0.868701
0.868877
0.867162
0.86509
0.863447
0.862601
0.862534
0.862957
0.863488
0.86381
0.863746
0.863264
0.862446
0.861448
0.860452
0.859628
0.859106
0.858959
0.859196
0.859775
0.860621
0.861638
0.862732
0.863815
0.86482
0.865687
0.866411
0.866984
0.867413
0.867685
0.867835
0.867865
0.867817
0.867688
0.867495
0.867237
0.86692
0.866568
0.866196
0.8658
0.865365
0.864926
0.86447
0.86397
0.863443
0.862896
0.862323
0.861754
0.861254
0.860945
0.860943
0.861274
0.861796
0.862207
0.00657212
0.184278
0.614384
0.79835
0.849213
0.864972
0.869744
0.869753
0.867843
0.86547
0.863372
0.861998
0.861479
0.861672
0.862257
0.862879
0.863264
0.863266
0.862863
0.862133
0.861219
0.860291
0.859511
0.859007
0.858859
0.859088
0.85966
0.860505
0.861527
0.862622
0.863698
0.864702
0.865588
0.866336
0.866938
0.867369
0.867654
0.867798
0.867832
0.867752
0.867587
0.867327
0.866994
0.866609
0.866191
0.865735
0.86523
0.864719
0.864188
0.863616
0.863017
0.862414
0.86181
0.86125
0.860789
0.86056
0.860659
0.861093
0.861695
0.862145
0.00686078
0.190567
0.621819
0.801403
0.850691
0.866031
0.870664
0.870601
0.868629
0.866113
0.86372
0.861904
0.860891
0.860684
0.861084
0.861776
0.862447
0.862863
0.862903
0.862555
0.86189
0.861043
0.860169
0.859423
0.858935
0.858787
0.859004
0.859556
0.86037
0.861356
0.862427
0.863513
0.864534
0.865456
0.86624
0.866866
0.867328
0.867625
0.867792
0.867813
0.867717
0.867491
0.86716
0.866757
0.866304
0.865791
0.865217
0.864631
0.864018
0.86337
0.862697
0.862034
0.861401
0.86085
0.860456
0.860327
0.860531
0.861061
0.861726
0.862204
0.0071414
0.196558
0.62859
0.804131
0.852004
0.866936
0.871441
0.871362
0.869417
0.866884
0.864355
0.862234
0.860782
0.860111
0.860156
0.860698
0.861449
0.862134
0.862554
0.862611
0.862294
0.861676
0.860875
0.860041
0.859321
0.858839
0.858678
0.858855
0.859347
0.860108
0.861063
0.862135
0.863226
0.864281
0.865244
0.866081
0.866758
0.867261
0.867611
0.867784
0.867804
0.867662
0.867365
0.866972
0.86651
0.865944
0.865311
0.864653
0.863958
0.863229
0.862486
0.861764
0.861105
0.86057
0.860243
0.860223
0.860538
0.861153
0.861863
0.862357
0.00741539
0.20229
0.634799
0.806596
0.8532
0.867713
0.872078
0.87201
0.870142
0.867678
0.865136
0.862859
0.861087
0.859986
0.859598
0.859825
0.860452
0.86122
0.86189
0.862294
0.862345
0.862041
0.861446
0.860674
0.859862
0.859148
0.858645
0.858424
0.858531
0.858962
0.859677
0.860609
0.861672
0.862793
0.863892
0.864939
0.865852
0.866598
0.867188
0.867571
0.867761
0.867759
0.867548
0.867203
0.866756
0.866165
0.865486
0.864767
0.863995
0.863192
0.862379
0.861608
0.86093
0.860418
0.860158
0.860234
0.860655
0.861345
0.862083
0.862581
0.00768214
0.207769
0.640519
0.808835
0.854267
0.868379
0.872603
0.872547
0.870775
0.868427
0.865961
0.863655
0.861702
0.860268
0.859461
0.859284
0.859628
0.860291
0.861041
0.861674
0.862039
0.862067
0.861754
0.86116
0.860391
0.859568
0.85881
0.858237
0.857942
0.857973
0.858335
0.859001
0.859903
0.86098
0.862149
0.863366
0.864512
0.865536
0.866408
0.867067
0.86748
0.867677
0.867623
0.86738
0.866983
0.866398
0.865708
0.864944
0.864109
0.863244
0.862374
0.861564
0.860878
0.860396
0.860202
0.860362
0.860864
0.861606
0.862359
0.862854
0.00794131
0.213003
0.645803
0.810878
0.855227
0.868961
0.873044
0.872992
0.871314
0.869102
0.866765
0.864523
0.862516
0.860874
0.859724
0.85914
0.859106
0.85951
0.860168
0.860872
0.861443
0.861751
0.861733
0.861386
0.860758
0.859939
0.859047
0.85821
0.857547
0.857155
0.857091
0.85737
0.857975
0.85888
0.860027
0.861344
0.862694
0.863995
0.865168
0.86614
0.866841
0.867299
0.86747
0.867408
0.867116
0.866596
0.86593
0.86515
0.864282
0.863373
0.862464
0.861631
0.860949
0.860505
0.860373
0.860606
0.861165
0.86193
0.862675
0.863155
0.00819319
0.218006
0.650696
0.812748
0.856091
0.869472
0.873411
0.873351
0.871757
0.869682
0.867501
0.865385
0.863422
0.861698
0.860319
0.859387
0.858958
0.859006
0.859422
0.860038
0.860671
0.861158
0.861385
0.861285
0.860853
0.860132
0.859217
0.858219
0.857265
0.856476
0.855953
0.855769
0.855961
0.856575
0.857589
0.858904
0.860386
0.86191
0.863375
0.864684
0.865733
0.866509
0.866976
0.867167
0.867056
0.866686
0.8661
0.865351
0.864482
0.863563
0.862641
0.861803
0.86114
0.86074
0.860667
0.860958
0.861554
0.862316
0.863034
0.86349
0.00843772
0.222785
0.655233
0.814463
0.856873
0.86992
0.87372
0.873644
0.872119
0.870171
0.868149
0.866191
0.864341
0.862639
0.861151
0.859974
0.859196
0.858859
0.858935
0.859319
0.85986
0.860389
0.860758
0.86085
0.860615
0.860045
0.859191
0.858131
0.856979
0.855858
0.854901
0.854224
0.853946
0.854192
0.854962
0.856156
0.857648
0.859293
0.860989
0.862612
0.864033
0.86519
0.866021
0.866529
0.866698
0.866551
0.866136
0.865484
0.864675
0.863788
0.862884
0.862071
0.861446
0.861095
0.861075
0.861407
0.862018
0.862759
0.863434
0.863859
0.00867451
0.227342
0.659439
0.816037
0.857583
0.870319
0.873985
0.873883
0.872409
0.870572
0.868701
0.866913
0.865218
0.863613
0.862124
0.860814
0.859775
0.859088
0.858786
0.858839
0.859146
0.859566
0.859937
0.860129
0.860044
0.859628
0.858876
0.857826
0.856564
0.855205
0.853887
0.852771
0.852103
0.852007
0.852439
0.853341
0.854615
0.856215
0.858033
0.859887
0.861643
0.863201
0.864442
0.865366
0.865909
0.866087
0.865931
0.865482
0.864799
0.864008
0.863172
0.862421
0.861856
0.861561
0.861588
0.861944
0.862552
0.863254
0.863874
0.864264
0.00890297
0.231674
0.663334
0.817482
0.858227
0.870673
0.874209
0.874075
0.872639
0.870892
0.869155
0.867532
0.866011
0.864553
0.863144
0.861812
0.860621
0.85966
0.859004
0.858677
0.858643
0.858807
0.859044
0.859213
0.859188
0.858875
0.85822
0.85722
0.855926
0.854433
0.852885
0.851548
0.850691
0.850291
0.850316
0.850761
0.85163
0.852972
0.854654
0.856547
0.858547
0.860472
0.862148
0.863539
0.864547
0.865143
0.865364
0.865235
0.864791
0.864174
0.863473
0.86283
0.862351
0.862123
0.862194
0.862561
0.863145
0.863794
0.864352
0.8647
0.00912241
0.235776
0.666935
0.818808
0.858812
0.870991
0.874403
0.874234
0.872824
0.871149
0.869528
0.868053
0.866701
0.865417
0.864145
0.862875
0.861639
0.860505
0.859556
0.858854
0.858422
0.858235
0.858208
0.858215
0.858126
0.857823
0.857218
0.856272
0.855008
0.853503
0.851955
0.850668
0.849692
0.848971
0.848575
0.848568
0.849011
0.849917
0.851215
0.852916
0.8549
0.856998
0.859076
0.860934
0.862478
0.863602
0.86433
0.864631
0.864554
0.864218
0.863737
0.863264
0.862911
0.862765
0.862878
0.863245
0.86379
0.864372
0.86486
0.865162
0.00933207
0.239643
0.670254
0.820021
0.859343
0.871273
0.874569
0.874362
0.872966
0.871346
0.869818
0.868474
0.867283
0.866174
0.86507
0.863925
0.862734
0.861527
0.86037
0.859346
0.858529
0.85794
0.857546
0.857263
0.856975
0.856561
0.855923
0.855005
0.853819
0.852459
0.851141
0.849973
0.848845
0.847828
0.847054
0.846641
0.846664
0.847116
0.848028
0.849384
0.851076
0.853101
0.855309
0.857538
0.85962
0.861331
0.862668
0.863542
0.863972
0.864052
0.863902
0.863678
0.863497
0.86346
0.86362
0.863983
0.864477
0.864987
0.865398
0.865653
0.0095312
0.24327
0.673302
0.821127
0.859824
0.871526
0.874715
0.87447
0.87308
0.8715
0.870045
0.868809
0.867756
0.86681
0.865884
0.864903
0.863817
0.862622
0.861356
0.860107
0.858961
0.857972
0.857154
0.856474
0.855855
0.855201
0.854427
0.8535
0.852458
0.851395
0.85036
0.849236
0.84798
0.846733
0.845628
0.844821
0.844415
0.844463
0.845008
0.84601
0.847422
0.849209
0.851264
0.853587
0.855975
0.858264
0.860291
0.861853
0.862932
0.863586
0.863883
0.864003
0.864064
0.864173
0.864397
0.864756
0.865196
0.865634
0.865964
0.866177
0.00971896
0.24665
0.676089
0.822133
0.860257
0.871751
0.874839
0.874556
0.873165
0.871613
0.870213
0.86906
0.868126
0.867327
0.866569
0.865761
0.864823
0.863702
0.862432
0.861066
0.859678
0.858336
0.857091
0.855952
0.854899
0.853884
0.852882
0.851955
0.851141
0.85036
0.849459
0.848329
0.847005
0.845597
0.844233
0.843074
0.842252
0.841877
0.842012
0.842667
0.843826
0.845394
0.847298
0.849513
0.851914
0.854546
0.85712
0.859461
0.86131
0.862681
0.863582
0.864159
0.86455
0.864862
0.865181
0.865551
0.86595
0.86631
0.866566
0.866734
0.00989444
0.249773
0.678619
0.823041
0.860645
0.871949
0.874945
0.874623
0.873228
0.871694
0.870333
0.869242
0.868396
0.86772
0.867116
0.866475
0.865693
0.864706
0.863515
0.862133
0.860608
0.859001
0.857369
0.855768
0.854221
0.852766
0.851543
0.850667
0.849973
0.849234
0.848329
0.847192
0.845847
0.844345
0.842799
0.841352
0.840162
0.839357
0.839058
0.839307
0.840133
0.841486
0.843295
0.845442
0.847872
0.850551
0.853385
0.856289
0.858995
0.861215
0.862863
0.864043
0.864875
0.865472
0.865938
0.866349
0.866721
0.867014
0.867209
0.867328
0.0100566
0.252631
0.680897
0.823854
0.86099
0.872121
0.875033
0.874675
0.873273
0.871749
0.870411
0.86936
0.868582
0.868005
0.867532
0.867044
0.866421
0.865596
0.864543
0.863234
0.861676
0.859904
0.857975
0.855961
0.853943
0.852099
0.850689
0.849692
0.848845
0.847983
0.847007
0.84584
0.844474
0.842923
0.841257
0.839602
0.838105
0.83691
0.836164
0.835971
0.836384
0.837434
0.839066
0.841188
0.843716
0.846472
0.849444
0.8526
0.855916
0.859057
0.861602
0.863536
0.864943
0.865929
0.866617
0.86712
0.867492
0.867749
0.867903
0.867979
0.0102045
0.255213
0.682927
0.824575
0.861292
0.872269
0.875105
0.874713
0.873298
0.871775
0.870451
0.869429
0.868698
0.868194
0.867821
0.867469
0.866998
0.86635
0.865462
0.864291
0.862798
0.860981
0.858883
0.856577
0.854192
0.852007
0.850293
0.848973
0.847827
0.846732
0.845595
0.84434
0.842922
0.84133
0.839588
0.837784
0.836041
0.834504
0.833338
0.832681
0.832647
0.833294
0.834644
0.836638
0.839181
0.842118
0.84533
0.84873
0.852308
0.856119
0.859652
0.862493
0.864627
0.86614
0.867155
0.867823
0.86825
0.868509
0.868632
0.868682
0.0103373
0.257511
0.68471
0.825205
0.861553
0.872394
0.875161
0.874737
0.873312
0.871787
0.87047
0.869462
0.868759
0.8683
0.867998
0.867739
0.867407
0.866935
0.866237
0.865243
0.863895
0.86215
0.860027
0.857588
0.854961
0.852442
0.850319
0.848577
0.847054
0.845626
0.84423
0.842794
0.841258
0.839593
0.837784
0.835866
0.833942
0.832119
0.830571
0.829458
0.82895
0.829141
0.830105
0.83185
0.8343
0.837336
0.840814
0.844583
0.848493
0.852593
0.856886
0.860748
0.863772
0.865972
0.867455
0.868409
0.86897
0.86927
0.86939
0.86945
0.0104543
0.259524
0.686255
0.825747
0.861775
0.872496
0.875203
0.874749
0.873311
0.87178
0.87046
0.869455
0.868763
0.868332
0.868079
0.867896
0.86768
0.867358
0.866851
0.866067
0.864921
0.863354
0.861332
0.858901
0.856159
0.853347
0.850764
0.848569
0.84664
0.84482
0.843072
0.841352
0.839605
0.83779
0.835874
0.833846
0.831756
0.829709
0.827844
0.826313
0.825323
0.825027
0.825525
0.826908
0.829148
0.832153
0.835797
0.839902
0.84429
0.848758
0.853407
0.858128
0.862192
0.865255
0.867385
0.86877
0.86958
0.870002
0.870175
0.870246
0.0105556
0.261255
0.68757
0.826206
0.861958
0.872577
0.87523
0.87475
0.873299
0.871761
0.870436
0.869429
0.868737
0.868316
0.868093
0.867956
0.867833
0.867649
0.867326
0.866764
0.865855
0.864519
0.8627
0.8604
0.857661
0.854621
0.851634
0.84901
0.846661
0.844411
0.84225
0.84016
0.83811
0.83605
0.833949
0.831768
0.829519
0.827272
0.825125
0.823226
0.821775
0.820983
0.820978
0.821894
0.823798
0.826641
0.830322
0.834656
0.839445
0.844451
0.849463
0.854622
0.859656
0.863761
0.86674
0.868745
0.869963
0.870609
0.870916
0.871034
0.0106415
0.26271
0.688664
0.826584
0.862107
0.872637
0.875244
0.87474
0.873275
0.871727
0.870392
0.869374
0.868675
0.868252
0.868039
0.867931
0.867868
0.867796
0.867635
0.86727
0.866604
0.865534
0.863983
0.8619
0.859281
0.856203
0.852962
0.849909
0.847107
0.844454
0.841871
0.839355
0.836907
0.834503
0.832118
0.829708
0.827261
0.824804
0.822406
0.820187
0.818321
0.81703
0.8165
0.816883
0.818347
0.820892
0.824461
0.828889
0.833964
0.839424
0.84498
0.850447
0.856023
0.861196
0.865215
0.868062
0.869898
0.870931
0.871463
0.871674
0.0107125
0.263909
0.689558
0.826891
0.862223
0.87268
0.875247
0.87472
0.873241
0.871681
0.870334
0.869302
0.868587
0.868152
0.867933
0.86784
0.867823
0.867836
0.867797
0.867619
0.867186
0.866398
0.86515
0.863357
0.860971
0.858014
0.854637
0.851196
0.848011
0.844992
0.841997
0.839043
0.836152
0.833328
0.830565
0.827829
0.825106
0.822395
0.819737
0.817215
0.814979
0.81321
0.812127
0.811973
0.81288
0.815001
0.81831
0.822679
0.827906
0.8337
0.839742
0.845699
0.851508
0.857316
0.862478
0.866375
0.869048
0.870673
0.87157
0.871963
0.0107695
0.264869
0.690269
0.827131
0.862309
0.872705
0.875238
0.87469
0.873196
0.871624
0.870262
0.869212
0.868478
0.868021
0.867784
0.867684
0.867683
0.867743
0.867801
0.867775
0.867568
0.867052
0.866111
0.864645
0.862576
0.859846
0.856506
0.852872
0.849348
0.845985
0.842643
0.839285
0.835952
0.832664
0.829443
0.826297
0.823212
0.820162
0.817201
0.81436
0.811757
0.809538
0.807938
0.807198
0.807509
0.809074
0.811981
0.816119
0.821324
0.827316
0.83372
0.84018
0.846386
0.852346
0.858217
0.863265
0.86694
0.869375
0.870798
0.87146
0.0108136
0.265608
0.690814
0.827314
0.862373
0.872719
0.875221
0.874653
0.873143
0.871554
0.870174
0.869102
0.868341
0.867856
0.867591
0.867472
0.86747
0.867556
0.867681
0.867771
0.867737
0.867467
0.866833
0.865714
0.86399
0.861592
0.858493
0.854842
0.851034
0.847385
0.843793
0.840105
0.836359
0.832625
0.82893
0.825297
0.821755
0.818292
0.814947
0.811737
0.808738
0.80609
0.803962
0.802617
0.80231
0.803249
0.805587
0.809335
0.814331
0.820338
0.82696
0.833798
0.840514
0.846749
0.852683
0.858381
0.863084
0.866434
0.868521
0.869538
0.0108452
0.266137
0.691202
0.827441
0.862412
0.87272
0.875196
0.874609
0.873083
0.871476
0.870077
0.868982
0.868193
0.86768
0.867386
0.867239
0.867217
0.867308
0.867473
0.867637
0.867731
0.867641
0.867261
0.866472
0.865142
0.863154
0.860417
0.856942
0.853053
0.849171
0.845361
0.841458
0.83741
0.833273
0.82912
0.825
0.820951
0.816989
0.813173
0.809516
0.806076
0.802955
0.800304
0.798372
0.797395
0.797621
0.799269
0.802455
0.807051
0.812866
0.819517
0.826607
0.833697
0.840416
0.846477
0.852067
0.857217
0.861308
0.864074
0.865443
0.0108649
0.266466
0.691441
0.827517
0.862431
0.872711
0.875168
0.874563
0.873019
0.871393
0.869971
0.868849
0.868029
0.867479
0.867148
0.866968
0.866917
0.866988
0.867154
0.867365
0.867552
0.867616
0.867464
0.866984
0.866022
0.864441
0.862133
0.859052
0.85528
0.851236
0.847273
0.843272
0.839043
0.834623
0.830083
0.825494
0.820941
0.816456
0.812098
0.807925
0.803967
0.800328
0.797131
0.794568
0.792879
0.792349
0.793222
0.795633
0.799632
0.805054
0.811532
0.818636
0.825942
0.833003
0.839475
0.845039
0.849977
0.854151
0.857157
0.858739
0.010873
0.266602
0.69154
0.827547
0.862433
0.872697
0.875139
0.874517
0.872954
0.871306
0.869858
0.868705
0.86785
0.86726
0.866887
0.866667
0.86658
0.86662
0.866773
0.866991
0.867216
0.86739
0.867413
0.86718
0.866552
0.86539
0.863557
0.86094
0.857518
0.853564
0.849496
0.845427
0.841168
0.83662
0.83183
0.826887
0.821866
0.816861
0.811953
0.807184
0.802641
0.798396
0.794574
0.791332
0.78891
0.787581
0.787591
0.789099
0.792284
0.797039
0.803087
0.81001
0.817293
0.824542
0.831314
0.83722
0.84208
0.845978
0.848743
0.850199
0.0108696
0.266546
0.6915
0.82753
0.862419
0.872677
0.87511
0.874473
0.872891
0.871219
0.869742
0.868556
0.867662
0.867029
0.866609
0.866341
0.866203
0.866198
0.866311
0.866513
0.866761
0.866992
0.867129
0.867076
0.866715
0.865925
0.864564
0.862505
0.859639
0.855982
0.851914
0.847866
0.843702
0.839164
0.834281
0.829126
0.823775
0.818321
0.812861
0.807498
0.802327
0.797401
0.792875
0.788909
0.78567
0.783462
0.782504
0.78301
0.785177
0.789016
0.794358
0.800799
0.807819
0.815052
0.821919
0.828072
0.833192
0.837072
0.8397
0.841079
0.0108553
0.266307
0.691323
0.827465
0.862384
0.872647
0.875073
0.874423
0.872822
0.871127
0.869622
0.868402
0.867469
0.86679
0.866319
0.866
0.865805
0.865742
0.8658
0.865954
0.866172
0.866404
0.866602
0.86669
0.866552
0.866081
0.865145
0.863611
0.861351
0.858272
0.854542
0.850545
0.846459
0.842105
0.837322
0.832136
0.826623
0.820872
0.814984
0.809054
0.803237
0.797612
0.79232
0.787526
0.783438
0.780254
0.778234
0.77761
0.778566
0.781216
0.785524
0.791145
0.797597
0.804467
0.811209
0.81742
0.822669
0.826768
0.829563
0.831005
0.0108285
0.265861
0.690998
0.827353
0.862335
0.872614
0.875041
0.87438
0.872759
0.871037
0.869498
0.868238
0.867259
0.866529
0.866004
0.86563
0.865372
0.865237
0.865224
0.865318
0.865494
0.865718
0.865938
0.866107
0.866131
0.865934
0.865381
0.864344
0.86269
0.860301
0.857122
0.853382
0.849436
0.845321
0.840801
0.835782
0.830305
0.824442
0.818283
0.811941
0.805557
0.799248
0.793179
0.787511
0.782455
0.778207
0.774958
0.773058
0.772635
0.773893
0.776795
0.781201
0.786702
0.792851
0.799158
0.805089
0.810306
0.814435
0.817264
0.818795
0.0107889
0.2652
0.690514
0.827187
0.862266
0.872575
0.875007
0.874338
0.872697
0.870947
0.869375
0.868076
0.867051
0.866269
0.865687
0.865256
0.86493
0.864725
0.864635
0.864656
0.864767
0.864942
0.86515
0.865348
0.865483
0.865462
0.86521
0.864616
0.863535
0.861855
0.859448
0.856284
0.852589
0.848719
0.844569
0.839887
0.834639
0.828869
0.822647
0.816085
0.809287
0.802411
0.795599
0.789033
0.782956
0.777562
0.773011
0.769611
0.767615
0.767185
0.768334
0.771108
0.775179
0.780203
0.785626
0.790964
0.795781
0.799693
0.802442
0.803972
0.0107356
0.264306
0.689857
0.826963
0.862176
0.872527
0.874972
0.874296
0.872636
0.870857
0.869247
0.867902
0.866827
0.865992
0.865353
0.864864
0.86447
0.864187
0.864017
0.863958
0.863996
0.864112
0.864289
0.864497
0.864688
0.864806
0.864796
0.864551
0.863965
0.862923
0.8613
0.858985
0.855901
0.852289
0.848474
0.84427
0.839424
0.833942
0.827877
0.821297
0.814308
0.807022
0.799611
0.792248
0.785135
0.778523
0.772574
0.767584
0.76377
0.761362
0.760438
0.761116
0.763244
0.766498
0.770496
0.774741
0.778756
0.782194
0.784667
0.786043
0.0106674
0.263158
0.689008
0.826672
0.862059
0.872467
0.87493
0.87425
0.872569
0.870758
0.869108
0.867716
0.866586
0.865689
0.864983
0.864427
0.863969
0.863614
0.863367
0.863226
0.863184
0.863237
0.863368
0.863558
0.863788
0.864009
0.864169
0.864206
0.864042
0.86357
0.862661
0.861189
0.859031
0.856092
0.852566
0.848733
0.844424
0.839394
0.833665
0.827283
0.8203
0.812833
0.805019
0.797019
0.788987
0.781207
0.773838
0.767123
0.761319
0.756648
0.753255
0.751343
0.750944
0.7518
0.753703
0.756241
0.758929
0.761448
0.7633
0.764361
0.0105823
0.26172
0.687936
0.826304
0.86191
0.87239
0.874878
0.874194
0.872491
0.870646
0.868951
0.867507
0.866319
0.865358
0.864587
0.863964
0.863444
0.863018
0.862697
0.862485
0.862378
0.862371
0.862463
0.862637
0.862878
0.863167
0.863468
0.863737
0.863896
0.863868
0.863555
0.862833
0.861569
0.85962
0.856854
0.853377
0.849434
0.844946
0.839707
0.833691
0.826933
0.819491
0.811507
0.803056
0.794327
0.785489
0.776709
0.768276
0.760416
0.753264
0.747117
0.742104
0.738426
0.736132
0.735104
0.735091
0.735792
0.736737
0.737627
0.738115
0.0104779
0.259945
0.686602
0.825843
0.861721
0.872291
0.874812
0.874125
0.872396
0.870512
0.868768
0.867266
0.866016
0.86499
0.864153
0.863468
0.862897
0.862413
0.862033
0.861763
0.861606
0.861562
0.861628
0.861801
0.86207
0.862423
0.862831
0.863263
0.863675
0.863995
0.864144
0.864022
0.86351
0.862463
0.860716
0.858097
0.854593
0.850426
0.845681
0.840169
0.833782
0.826582
0.818633
0.809978
0.800721
0.791062
0.781121
0.771011
0.761042
0.751302
0.742105
0.733594
0.726041
0.71972
0.714692
0.711001
0.708629
0.707179
0.706455
0.7061
0.0103508
0.257768
0.684946
0.825266
0.861479
0.87216
0.874719
0.87403
0.872272
0.870343
0.868544
0.86698
0.865664
0.864573
0.863673
0.862933
0.862323
0.861809
0.861398
0.861102
0.860927
0.860876
0.860947
0.861138
0.861445
0.861855
0.86235
0.862907
0.863489
0.86405
0.864531
0.864852
0.864917
0.864599
0.863744
0.862163
0.859627
0.855997
0.851481
0.846378
0.840509
0.8337
0.825941
0.817296
0.807788
0.797521
0.786621
0.775082
0.763117
0.75084
0.7384
0.726023
0.713977
0.702647
0.692452
0.683649
0.676667
0.671555
0.668237
0.666562
0.0101969
0.255108
0.682893
0.824541
0.861165
0.871981
0.87459
0.873897
0.872107
0.870128
0.868268
0.866641
0.865262
0.864111
0.863161
0.862383
0.861754
0.86125
0.860849
0.860568
0.860415
0.860393
0.860501
0.860735
0.861091
0.861557
0.862119
0.862759
0.86345
0.86416
0.864846
0.865453
0.865906
0.866116
0.865953
0.865233
0.863733
0.861168
0.8573
0.852339
0.846745
0.840411
0.833003
0.824509
0.814971
0.804394
0.792767
0.780106
0.766392
0.751684
0.736058
0.719676
0.702639
0.685405
0.668585
0.652908
0.639243
0.628386
0.620802
0.616938
0.0100119
0.251878
0.680356
0.823632
0.860758
0.871738
0.874405
0.873713
0.871888
0.869857
0.867939
0.866255