/*--------------------------------*- C++ -*----------------------------------*\
| =========                 |                                                 |
| \\      /  F ield         | OpenFOAM: The Open Source CFD Toolbox           |
|  \\    /   O peration     | Version:  2212                                  |
|   \\  /    A nd           | Website:  www.openfoam.com                      |
|    \\/     M anipulation  |                                                 |
\*---------------------------------------------------------------------------*/
FoamFile
{
    version     2.0;
    format      ascii;
    arch        "LSB;label=32;scalar=64";
    class       volScalarField;
    location    "1";
    object      theta3_Scaled_;
}
// * * * * * * * * * * * * * * * * * * * * * * * * * * * * * * * * * * * * * //

dimensions      [0 0 0 0 0 0 0];

internalField   nonuniform List<scalar> 
3600
(
1.12134e-11
8.03704e-10
8.10847e-09
3.38313e-08
7.27597e-08
7.22071e-08
-2.58598e-08
-2.09882e-07
-4.21733e-07
-5.94072e-07
-6.90398e-07
-7.08978e-07
-6.71677e-07
-6.06842e-07
-5.38019e-07
-4.80135e-07
-4.3952e-07
-4.1524e-07
-4.04362e-07
-4.12942e-07
-4.40871e-07
-4.72561e-07
-5.03643e-07
-5.36986e-07
-5.72584e-07
-6.09714e-07
-6.47599e-07
-6.85435e-07
-7.22702e-07
-7.59013e-07
-7.93863e-07
-8.2677e-07
-8.57284e-07
-8.84566e-07
-9.07998e-07
-9.27496e-07
-9.43322e-07
-9.55911e-07
-9.65442e-07
-9.7238e-07
-9.77219e-07
-9.80387e-07
-9.82254e-07
-9.82748e-07
-9.81303e-07
-9.77941e-07
-9.72481e-07
-9.64595e-07
-9.53877e-07
-9.40214e-07
-9.23051e-07
-9.01379e-07
-8.73827e-07
-8.38329e-07
-7.91878e-07
-7.30439e-07
-6.50892e-07
-5.56414e-07
-4.639e-07
-4.02736e-07
8.03845e-10
3.78601e-07
4.5076e-06
1.58704e-05
3.01969e-05
2.57032e-05
-1.97416e-05
-0.000100532
-0.000192018
-0.0002662
-0.00030705
-0.000313273
-0.000293466
-0.00025951
-0.000221492
-0.000186094
-0.000156369
-0.000132369
-0.000113091
-9.9425e-05
-9.0433e-05
-8.24636e-05
-7.39486e-05
-6.58805e-05
-5.83072e-05
-5.10226e-05
-4.38441e-05
-3.65992e-05
-2.92402e-05
-2.17913e-05
-1.42409e-05
-6.60029e-06
1.09548e-06
8.9688e-06
1.70603e-05
2.52283e-05
3.32316e-05
4.07658e-05
4.77545e-05
5.40364e-05
5.94306e-05
6.37879e-05
6.69983e-05
6.9106e-05
7.03381e-05
7.07601e-05
7.02761e-05
6.90018e-05
6.70527e-05
6.43553e-05
6.10143e-05
5.72919e-05
5.35474e-05
5.04692e-05
4.926e-05
5.19105e-05
6.07772e-05
7.66997e-05
9.60626e-05
0.000110078
8.10912e-09
4.50778e-06
0.000137129
0.000583096
0.000893521
0.000426526
-0.00105101
-0.00306067
-0.0050299
-0.00641941
-0.00694918
-0.00664264
-0.00572227
-0.00447346
-0.0031327
-0.00185787
-0.00072438
0.00025753
0.0011069
0.00178714
0.00229242
0.00273928
0.00315888
0.00354095
0.00389031
0.00421439
0.00451873
0.00480841
0.00508583
0.00535201
0.00560854
0.00585666
0.00609716
0.00633389
0.00656873
0.00679948
0.00702175
0.00722887
0.00742035
0.00759297
0.00774299
0.00786751
0.00796404
0.00803401
0.00808216
0.00810995
0.00811599
0.0081028
0.00807269
0.00802446
0.00796078
0.00788801
0.00781492
0.00775769
0.00774404
0.007819
0.00803537
0.00841082
0.00886215
0.00918256
3.38327e-08
1.58709e-05
0.000583107
0.0031067
0.00103147
-0.0111654
-0.0255618
-0.035935
-0.0423865
-0.0449787
-0.044152
-0.040708
-0.0356287
-0.0299078
-0.0242767
-0.0192185
-0.0149531
-0.011569
-0.00898498
-0.00692069
-0.0052712
-0.0040985
-0.00333681
-0.00284117
-0.00253054
-0.00234588
-0.00224669
-0.00219696
-0.002173
-0.00215611
-0.00212777
-0.00207065
-0.00196874
-0.00179798
-0.00154532
-0.00121606
-0.000827292
-0.000402131
4.89151e-05
0.000503408
0.000940305
0.00134451
0.00170084
0.00201605
0.0023081
0.00257849
0.00283806
0.00310104
0.0033804
0.00368693
0.00404955
0.00451833
0.00516356
0.00608996
0.00745006
0.00944538
0.0122458
0.0157546
0.0193029
0.0216452
7.27618e-08
3.01978e-05
0.000893545
0.00103158
-0.0336361
-0.108017
-0.166654
-0.193491
-0.202259
-0.198864
-0.187366
-0.171029
-0.152623
-0.134461
-0.117942
-0.103811
-0.0922448
-0.0833065
-0.076723
-0.070799
-0.0646075
-0.0596826
-0.0560744
-0.0532282
-0.0509101
-0.0489679
-0.0473009
-0.0458273
-0.0444903
-0.043241
-0.0420406
-0.0408526
-0.0396423
-0.0383716
-0.0370248
-0.0356146
-0.0341727
-0.0327367
-0.0313299
-0.0299937
-0.0287624
-0.0276597
-0.0267095
-0.0258949
-0.0251887
-0.024594
-0.0240764
-0.0236113
-0.0231792
-0.0227525
-0.0222689
-0.0216268
-0.0206829
-0.0192271
-0.0169581
-0.0134865
-0.00848263
-0.00210807
0.00437029
0.00864111
7.22087e-08
2.57038e-05
0.00042655
-0.0111652
-0.108017
-0.257762
-0.343924
-0.377069
-0.391188
-0.391424
-0.379198
-0.356465
-0.325697
-0.290388
-0.253722
-0.218472
-0.186466
-0.158696
-0.135364
-0.11565
-0.0986062
-0.0842025
-0.0723245
-0.0623531
-0.0538877
-0.0466134
-0.0402834
-0.0347024
-0.0297163
-0.0251876
-0.0210129
-0.0170942
-0.0133402
-0.0096711
-0.00604881
-0.002476
0.00100997
0.00432451
0.00743885
0.010305
0.0128893
0.0151726
0.0171346
0.0188178
0.0202603
0.0214541
0.0224713
0.0233534
0.0241243
0.0248344
0.0255836
0.0265262
0.0278741
0.0299183
0.033041
0.0376712
0.0440516
0.0517383
0.059154
0.063895
-2.58611e-08
-1.97422e-05
-0.00105101
-0.0255618
-0.166654
-0.343924
-0.422077
-0.449352
-0.468377
-0.483218
-0.488905
-0.483258
-0.465718
-0.437968
-0.40222
-0.361588
-0.319138
-0.277506
-0.238605
-0.203874
-0.173718
-0.147462
-0.124858
-0.105533
-0.0890384
-0.0749375
-0.0628151
-0.0523204
-0.043151
-0.0350331
-0.0277467
-0.0210846
-0.0148582
-0.00891346
-0.00316022
0.00242176
0.0077259
0.0127029
0.0173476
0.0216116
0.0254707
0.0289189
0.0319437
0.0346164
0.0369861
0.0390392
0.0408967
0.0426287
0.0442665
0.0458961
0.0476684
0.0498013
0.0525865
0.0563932
0.0616598
0.0687917
0.0778519
0.0880308
0.0973244
0.103011
-2.09889e-07
-0.000100535
-0.00306074
-0.0359353
-0.193491
-0.37707
-0.449352
-0.461626
-0.469387
-0.490341
-0.514618
-0.532312
-0.538141
-0.531536
-0.513621
-0.486338
-0.452077
-0.413332
-0.372523
-0.331901
-0.293183
-0.257301
-0.22464
-0.195377
-0.169441
-0.14661
-0.126555
-0.108936
-0.0934045
-0.0796158
-0.0672734
-0.0560805
-0.0457606
-0.0360932
-0.0269306
-0.0182001
-0.00989432
-0.00204069
0.00528585
0.0118973
0.0178022
0.0230328
0.0276098
0.0316498
0.0352254
0.0383267
0.0411275
0.0437341
0.0461886
0.0486076
0.0511896
0.0542056
0.0580097
0.0630185
0.0696846
0.0783459
0.0888794
0.100212
0.110171
0.116109
-4.21746e-07
-0.000192023
-0.00503006
-0.0423874
-0.20226
-0.391191
-0.468379
-0.469389
-0.452733
-0.456276
-0.483819
-0.51928
-0.54763
-0.563306
-0.565823
-0.55654
-0.537337
-0.510077
-0.476766
-0.439586
-0.400688
-0.361564
-0.323387
-0.287062
-0.253207
-0.222136
-0.193912
-0.168468
-0.145603
-0.125037
-0.106493
-0.0896464
-0.0741637
-0.0597655
-0.0462562
-0.0335166
-0.0215037
-0.0102222
0.000311321
0.00984235
0.0182543
0.0256428
0.0320902
0.0377707
0.0427959
0.0471773
0.0511371
0.0548309
0.0583192
0.0617474
0.0653558
0.0694595
0.0744562
0.0807817
0.088865
0.0989405
0.110697
0.122868
0.133229
0.139281
-5.94093e-07
-0.00026621
-0.00641966
-0.0449802
-0.198868
-0.391428
-0.48322
-0.490341
-0.456275
-0.425001
-0.42839
-0.464887
-0.510659
-0.548582
-0.572712
-0.583046
-0.58131
-0.569418
-0.54914
-0.522264
-0.490579
-0.455606
-0.418697
-0.381089
-0.343871
-0.307872
-0.273655
-0.241616
-0.211898
-0.184499
-0.159307
-0.136116
-0.114638
-0.0946046
-0.0758274
-0.0581638
-0.0415601
-0.0260057
-0.0115301
0.00181302
0.0136559
0.0239398
0.0328527
0.0406498
0.0475105
0.0534948
0.0588748
0.0638673
0.0685662
0.0731452
0.0778789
0.083121
0.0892983
0.096848
0.106161
0.117369
0.130013
0.142717
0.153289
0.159375
-6.90428e-07
-0.000307064
-0.00694957
-0.0441541
-0.187368
-0.379201
-0.488906
-0.514617
-0.483816
-0.428388
-0.388922
-0.396057
-0.441192
-0.496267
-0.542356
-0.573664
-0.590555
-0.595099
-0.589369
-0.575226
-0.554279
-0.527896
-0.497272
-0.463592
-0.427987
-0.391482
-0.35495
-0.319161
-0.284611
-0.251682
-0.220532
-0.191207
-0.163574
-0.137505
-0.112881
-0.0895967
-0.0676383
-0.0470086
-0.0277827
-0.0100153
0.00620951
0.020289
0.0323767
0.0428477
0.0519868
0.0599407
0.0670362
0.073563
0.0796696
0.0855594
0.0915346
0.0979775
0.105334
0.114033
0.124423
0.136553
0.14987
0.162962
0.173704
0.179845
-7.09006e-07
-0.000313287
-0.00664301
-0.0407106
-0.171035
-0.356469
-0.483259
-0.53231
-0.519277
-0.464884
-0.396056
-0.353679
-0.36516
-0.417765
-0.480283
-0.533064
-0.570322
-0.592724
-0.602561
-0.602119
-0.593278
-0.577472
-0.555856
-0.529468
-0.499295
-0.466295
-0.431363
-0.395378
-0.359046
-0.323019
-0.287743
-0.253525
-0.220471
-0.188682
-0.158196
-0.129015
-0.101238
-0.0749229
-0.0502477
-0.0273051
-0.00613471
0.0129179
0.0291462
0.0430361
0.0550337
0.0654183
0.0745947
0.0829409
0.0906772
0.0980511
0.105386
0.113085
0.121608
0.131375
0.142706
0.155598
0.16946
0.182893
0.193841
0.200088
-6.71725e-07
-0.000293487
-0.00572275
-0.0356307
-0.152627
-0.3257
-0.465719
-0.538141
-0.547626
-0.510655
-0.441188
-0.365157
-0.322598
-0.338475
-0.396705
-0.46483
-0.522842
-0.564975
-0.591992
-0.60635
-0.610429
-0.606061
-0.59463
-0.577194
-0.554665
-0.527874
-0.497592
-0.464619
-0.429667
-0.393465
-0.356595
-0.319551
-0.282682
-0.246287
-0.210639
-0.175879
-0.142289
-0.110046
-0.0794752
-0.0507579
-0.0240183
0.000680455
0.0223416
0.0406253
0.0562176
0.0696032
0.0813042
0.0918047
0.101424
0.110471
0.11929
0.128299
0.137974
0.148736
0.160897
0.174442
0.188788
0.202579
0.213795
0.220207
-6.06908e-07
-0.000259537
-0.00447414
-0.02991
-0.134461
-0.290388
-0.437965
-0.531533
-0.563301
-0.548577
-0.496262
-0.417762
-0.338472
-0.297588
-0.317036
-0.37903
-0.45097
-0.512906
-0.558962
-0.589864
-0.608085
-0.615982
-0.615397
-0.607683
-0.593861
-0.574747
-0.551033
-0.523367
-0.492369
-0.458683
-0.422869
-0.385463
-0.346944
-0.307746
-0.26832
-0.228977
-0.190183
-0.152284
-0.115777
-0.0809971
-0.048196
-0.0175429
0.0106926
0.0346713
0.0548189
0.0719267
0.0867052
0.099767
0.111566
0.122498
0.132939
0.143319
0.154141
0.165845
0.178764
0.192908
0.207735
0.221926
0.233477
0.240095
-5.38076e-07
-0.000221517
-0.00313329
-0.0242788
-0.117943
-0.253721
-0.402216
-0.513617
-0.565818
-0.572709
-0.542353
-0.48028
-0.396703
-0.317034
-0.278661
-0.300753
-0.364838
-0.439098
-0.503851
-0.553037
-0.587192
-0.608673
-0.619804
-0.622424
-0.617882
-0.607166
-0.591011
-0.570017
-0.544687
-0.515541
-0.483034
-0.44762
-0.409761
-0.369917
-0.328602
-0.286241
-0.243467
-0.200764
-0.15881
-0.118111
-0.0790937
-0.0420992
-0.00727962
0.0240559
0.0500214
0.0717709
0.0903154
0.106434
0.120767
0.133833
0.146056
0.157892
0.169879
0.182504
0.196156
0.210894
0.226236
0.240882
0.252811
0.259656
-4.80158e-07
-0.000186105
-0.00185823
-0.0192205
-0.103813
-0.218471
-0.361587
-0.486337
-0.556539
-0.583045
-0.573665
-0.533064
-0.464829
-0.379029
-0.300753
-0.265203
-0.289005
-0.353862
-0.429271
-0.495951
-0.547598
-0.584437
-0.608659
-0.622534
-0.627884
-0.626048
-0.617979
-0.604353
-0.585674
-0.562362
-0.534768
-0.503194
-0.468032
-0.429649
-0.388497
-0.345048
-0.299968
-0.253859
-0.207508
-0.16157
-0.116667
-0.0733208
-0.0318561
0.00733018
0.0408026
0.068387
0.0915614
0.111353
0.12865
0.144144
0.158338
0.171745
0.184956
0.198533
0.212941
0.228317
0.244231
0.259371
0.27169
0.278757
-4.39527e-07
-0.000156374
-0.000724513
-0.0149547
-0.0922494
-0.186468
-0.319139
-0.452078
-0.537341
-0.581312
-0.590556
-0.570323
-0.522843
-0.45097
-0.364838
-0.289005
-0.256227
-0.280977
-0.345657
-0.421357
-0.489267
-0.542798
-0.581832
-0.608359
-0.624568
-0.632242
-0.632703
-0.62686
-0.615345
-0.598572
-0.576849
-0.550365
-0.519411
-0.484251
-0.445237
-0.402701
-0.357275
-0.309557
-0.260332
-0.210359
-0.160416
-0.111153
-0.0631427
-0.0169013
0.0258314
0.0608508
0.0897637
0.114001
0.134787
0.153067
0.169467
0.184608
0.199154
0.213766
0.229015
0.245112
0.261654
0.277308
0.289993
0.297254
-4.15294e-07
-0.000132388
0.000257098
-0.0115698
-0.0833051
-0.158694
-0.277501
-0.413328
-0.510077
-0.569421
-0.5951
-0.592724
-0.564977
-0.512907
-0.4391
-0.353863
-0.280978
-0.250745
-0.275863
-0.339731
-0.415118
-0.483717
-0.538662
-0.579479
-0.607942
-0.626129
-0.635771
-0.638145
-0.634121
-0.624255
-0.608886
-0.588288
-0.562602
-0.532006
-0.496715
-0.456905
-0.413053
-0.365666
-0.315403
-0.262995
-0.209321
-0.155097
-0.10112
-0.0481302
0.00329547
0.0479636
0.0840983
0.113789
0.138741
0.160247
0.179145
0.196219
0.212258
0.228061
0.244284
0.261214
0.278436
0.294588
0.307585
0.314987
-4.04365e-07
-0.000113094
0.00110687
-0.00898567
-0.0767259
-0.135365
-0.238604
-0.372522
-0.476763
-0.54914
-0.589368
-0.602562
-0.591997
-0.558966
-0.503854
-0.429275
-0.345659
-0.275863
-0.247865
-0.272939
-0.3356
-0.410267
-0.479141
-0.53512
-0.577385
-0.607466
-0.627308
-0.63856
-0.642435
-0.639772
-0.63113
-0.61686
-0.597075
-0.571912
-0.541446
-0.505795
-0.46518
-0.419922
-0.370542
-0.317589
-0.261892
-0.204148
-0.145268
-0.0862117
-0.0277414
0.0281089
0.0734949
0.109976
0.139985
0.1653
0.187088
0.206374
0.224121
0.241286
0.25866
0.276544
0.294481
0.311091
0.324314
0.331794
-4.1287e-07
-9.93953e-05
0.00178771
-0.00691999
-0.0708013
-0.115655
-0.203881
-0.331911
-0.439597
-0.522272
-0.575234
-0.602127
-0.606357
-0.589869
-0.553041
-0.495955
-0.42136
-0.339734
-0.272938
-0.246835
-0.271568
-0.332794
-0.406475
-0.475334
-0.532059
-0.575476
-0.606871
-0.628011
-0.640473
-0.645496
-0.64391
-0.636243
-0.622705
-0.603452
-0.578549
-0.548049
-0.511959
-0.470404
-0.423673
-0.372075
-0.316252
-0.256809
-0.194562
-0.130644
-0.0659602
-0.00100123
0.0565098
0.101613
0.137876
0.167779
0.192986
0.214861
0.234612
0.253376
0.272062
0.291005
0.309674
0.32667
0.340017
0.347503
-4.40817e-07
-9.04088e-05
0.00229296
-0.0052697
-0.0646072
-0.0986098
-0.173728
-0.293194
-0.400695
-0.490591
-0.554291
-0.593285
-0.610433
-0.608088
-0.587194
-0.547599
-0.489268
-0.415116
-0.335595
-0.271563
-0.246997
-0.271181
-0.33085
-0.403404
-0.472051
-0.529271
-0.573552
-0.605899
-0.628022
-0.641462
-0.647402
-0.646629
-0.639583
-0.626539
-0.607607
-0.582892
-0.552224
-0.515553
-0.472972
-0.424471
-0.37041
-0.31125
-0.247549
-0.180436
-0.110848
-0.0393798
0.0310978
0.0874035
0.131564
0.167122
0.196466
0.221453
0.243601
0.264255
0.284439
0.304493
0.323868
0.341161
0.354519
0.361936
-4.72565e-07
-8.24615e-05
0.00273935
-0.00409862
-0.0596836
-0.084205
-0.147466
-0.257304
-0.361565
-0.455605
-0.527892
-0.577471
-0.606061
-0.615982
-0.608673
-0.584435
-0.542796
-0.483711
-0.410255
-0.332779
-0.271168
-0.247798
-0.271272
-0.329351
-0.400708
-0.468968
-0.52641
-0.571254
-0.604351
-0.627262
-0.641454
-0.64805
-0.647771
-0.641146
-0.628459
-0.609879
-0.58519
-0.554259
-0.516935
-0.473
-0.422395
-0.365442
-0.302401
-0.234102
-0.16138
-0.0848884
-0.00562797
0.0655749
0.119935
0.162617
0.197084
0.225872
0.250925
0.273827
0.295704
0.316915
0.336905
0.354366
0.367625
0.374913
-5.03669e-07
-7.39553e-05
0.00315873
-0.00333824
-0.0560775
-0.0723269
-0.124859
-0.224641
-0.323383
-0.418687
-0.497265
-0.555852
-0.594628
-0.615395
-0.619802
-0.608656
-0.581829
-0.538655
-0.47913
-0.406454
-0.330829
-0.271256
-0.248732
-0.271385
-0.327866
-0.397941
-0.465633
-0.523126
-0.568379
-0.602036
-0.625526
-0.640204
-0.647159
-0.647264
-0.641096
-0.628895
-0.610519
-0.585838
-0.554501
-0.516164
-0.470443
-0.417402
-0.357013
-0.289736
-0.216011
-0.136525
-0.0522118
0.0335984
0.101485
0.15335
0.194283
0.22779
0.256383
0.281947
0.305733
0.328136
0.348648
0.366128
0.379162
0.386251
-5.3702e-07
-6.58897e-05
0.00354082
-0.0028416
-0.0532279
-0.0623513
-0.10553
-0.195374
-0.287059
-0.381086
-0.463589
-0.529466
-0.577193
-0.607683
-0.622423
-0.622532
-0.608355
-0.579471
-0.535111
-0.475316
-0.403382
-0.329335
-0.271381
-0.249363
-0.271051
-0.325902
-0.394659
-0.461702
-0.519108
-0.564606
-0.598626
-0.622427
-0.637345
-0.644693
-0.645412
-0.639858
-0.628083
-0.609908
-0.584976
-0.552913
-0.513158
-0.46541
-0.409413
-0.345209
-0.272777
-0.192693
-0.105506
-0.0119766
0.0740942
0.138093
0.18735
0.226784
0.259707
0.288417
0.31434
0.337968
0.358919
0.376288
0.388994
0.395831
-5.72599e-07
-5.83075e-05
0.00389044
-0.00252952
-0.0509066
-0.053881
-0.0890323
-0.169439
-0.253212
-0.343875
-0.42799
-0.499298
-0.554664
-0.59386
-0.617881
-0.627883
-0.624564
-0.607937
-0.577378
-0.532047
-0.472037
-0.400694
-0.327866
-0.271045
-0.249195
-0.269792
-0.323008
-0.390397
-0.456696
-0.513905
-0.559485
-0.593509
-0.617529
-0.633117
-0.641404
-0.642918
-0.637823
-0.626245
-0.607984
-0.582611
-0.549467
-0.508037
-0.457823
-0.398441
-0.329534
-0.25127
-0.163771
-0.0673274
0.0346862
0.115146
0.175321
0.22229
0.260535
0.292958
0.321276
0.346165
0.367486
0.384658
0.396955
0.4035
-6.09698e-07
-5.10089e-05
0.00421479
-0.00234422
-0.0489644
-0.0466079
-0.0749325
-0.146607
-0.222135
-0.307873
-0.391484
-0.466297
-0.527875
-0.574747
-0.607166
-0.626046
-0.632239
-0.626125
-0.607461
-0.575471
-0.52926
-0.468958
-0.397937
-0.325896
-0.269788
-0.24778
-0.267116
-0.318557
-0.384488
-0.45001
-0.506699
-0.552081
-0.586586
-0.611714
-0.628508
-0.637758
-0.639856
-0.635086
-0.623459
-0.60474
-0.57856
-0.544161
-0.500659
-0.447572
-0.384108
-0.309971
-0.224739
-0.128176
-0.0205068
0.0820593
0.156852
0.213524
0.258362
0.295187
0.326202
0.35242
0.374088
0.391009
0.402856
0.409096
-6.47537e-07
-4.38115e-05
0.00451947
-0.0022444
-0.0472981
-0.0402809
-0.0628138
-0.126555
-0.193912
-0.273656
-0.35495
-0.431363
-0.497597
-0.551029
-0.591006
-0.617976
-0.6327
-0.635767
-0.627304
-0.606865
-0.573543
-0.5264
-0.465623
-0.394645
-0.322998
-0.267112
-0.244435
-0.262033
-0.31149
-0.375835
-0.440208
-0.496755
-0.542725
-0.578761
-0.605254
-0.623109
-0.633174
-0.635816
-0.631335
-0.619557
-0.600218
-0.572898
-0.53685
-0.491113
-0.434492
-0.366409
-0.28593
-0.192088
-0.0843451
0.0351741
0.129999
0.199375
0.252472
0.294571
0.328677
0.356366
0.378399
0.395067
0.406464
0.412392
-6.85385e-07
-3.65688e-05
0.00480911
-0.00219486
-0.0458248
-0.0347006
-0.052319
-0.108935
-0.16847
-0.241615
-0.319156
-0.395367
-0.464611
-0.523366
-0.570012
-0.60435
-0.626859
-0.638143
-0.638557
-0.628006
-0.605893
-0.571247
-0.523119
-0.461685
-0.390382
-0.31855
-0.262031
-0.237728
-0.253164
-0.300287
-0.363229
-0.426906
-0.484432
-0.532491
-0.570076
-0.597688
-0.616382
-0.627082
-0.630348
-0.626219
-0.614362
-0.59442
-0.565735
-0.527634
-0.479139
-0.418634
-0.344935
-0.256402
-0.151684
-0.0293516
0.0918613
0.178223
0.241854
0.290384
0.328122
0.357516
0.380015
0.396484
0.407474
0.413106
-7.22736e-07
-2.92425e-05
0.00508595
-0.00217208
-0.0444866
-0.0297078
-0.0431392
-0.0933912
-0.145588
-0.211886
-0.284604
-0.359042
-0.429668
-0.492377
-0.544697
-0.585681
-0.615349
-0.634122
-0.642433
-0.64047
-0.628017
-0.604346
-0.568377
-0.519101
-0.456688
-0.384483
-0.311488
-0.253162
-0.22636
-0.239439
-0.284501
-0.345954
-0.411428
-0.471203
-0.521218
-0.560272
-0.588994
-0.60849
-0.619698
-0.62332
-0.619448
-0.607702
-0.587169
-0.557174
-0.516623
-0.464708
-0.399553
-0.318464
-0.219714
-0.100798
0.0379805
0.14766
0.225028
0.281602
0.323763
0.355256
0.378428
0.394848
0.405516
0.410904
-7.59014e-07
-2.17777e-05
0.00535244
-0.00215446
-0.0432369
-0.0251803
-0.0350246
-0.0796082
-0.125033
-0.184494
-0.251674
-0.323023
-0.393465
-0.458675
-0.515545
-0.562377
-0.598581
-0.624258
-0.639774
-0.645496
-0.641462
-0.627261
-0.602034
-0.564601
-0.513898
-0.450006
-0.375831
-0.300291
-0.239443
-0.210228
-0.219017
-0.261911
-0.324847
-0.393137
-0.456028
-0.508574
-0.549492
-0.579421
-0.599652
-0.611308
-0.615052
-0.611172
-0.599348
-0.578459
-0.547091
-0.503881
-0.447689
-0.376158
-0.285702
-0.173644
-0.0359776
0.104012
0.199828
0.266781
0.314544
0.348762
0.372984
0.389607
0.400101
0.405337
-7.93848e-07
-1.42182e-05
0.00560917
-0.0021255
-0.0420359
-0.0210043
-0.0277356
-0.0672627
-0.106484
-0.159302
-0.22053
-0.287747
-0.356604
-0.422871
-0.483042
-0.534781
-0.576865
-0.608906
-0.63115
-0.643922
-0.647407
-0.641458
-0.625528
-0.598626
-0.559484
-0.506698
-0.440209
-0.363238
-0.284509
-0.219022
-0.183725
-0.189298
-0.232421
-0.299069
-0.371676
-0.438527
-0.494176
-0.537487
-0.569106
-0.590241
-0.602202
-0.605908
-0.601665
-0.589403
-0.56821
-0.535242
-0.489013
-0.427257
-0.347398
-0.24489
-0.115587
0.0414917
0.162984
0.243831
0.299002
0.336944
0.362836
0.380019
0.3906
0.395798
-8.26794e-07
-6.58986e-06
0.0058571
-0.0020685
-0.0408465
-0.0170819
-0.021067
-0.0560604
-0.0896289
-0.136104
-0.191201
-0.253526
-0.319558
-0.385474
-0.447643
-0.503229
-0.5504
-0.588314
-0.616876
-0.636244
-0.646629
-0.648052
-0.640206
-0.622428
-0.593507
-0.552073
-0.496749
-0.426907
-0.345958
-0.261911
-0.189305
-0.147202
-0.150464
-0.196701
-0.26873
-0.347152
-0.418942
-0.478402
-0.524453
-0.557914
-0.580242
-0.592625
-0.596087
-0.591326
-0.578259
-0.555809
-0.521431
-0.471427
-0.402352
-0.312014
-0.194341
-0.0449799
0.109407
0.209643
0.275034
0.318259
0.346745
0.365076
0.376119
0.381444
-8.572e-07
1.15344e-06
0.00609859
-0.00196341
-0.0396322
-0.0133246
-0.014841
-0.0457444
-0.0741506
-0.114633
-0.163582
-0.220484
-0.282699
-0.346974
-0.409813
-0.468091
-0.519475
-0.562656
-0.597124
-0.622743
-0.639602
-0.647778
-0.647164
-0.637348
-0.617527
-0.586583
-0.542724
-0.484431
-0.411432
-0.32486
-0.232428
-0.150434
-0.102129
-0.104545
-0.155114
-0.234251
-0.319883
-0.397653
-0.46157
-0.510648
-0.546054
-0.569547
-0.582505
-0.585791
-0.580127
-0.565746
-0.541628
-0.505347
-0.450147
-0.372264
-0.269205
-0.135155
0.0308243
0.159374
0.23946
0.290421
0.322945
0.343342
0.355398
0.361112
-8.84413e-07
9.05967e-06
0.00633594
-0.00179124
-0.0383608
-0.00965729
-0.00890155
-0.036084
-0.0597607
-0.0946065
-0.137516
-0.188704
-0.246323
-0.307796
-0.369975
-0.429732
-0.484337
-0.532085
-0.571956
-0.603504
-0.626569
-0.641157
-0.647278
-0.644703
-0.633121
-0.611719
-0.578768
-0.532496
-0.471197
-0.393132
-0.299053
-0.196668
-0.104534
-0.0494674
-0.0515803
-0.108101
-0.196106
-0.29037
-0.375037
-0.443863
-0.496219
-0.533662
-0.55823
-0.571557
-0.574596
-0.567821
-0.551619
-0.525619
-0.486462
-0.424874
-0.337049
-0.221267
-0.0740481
0.0851714
0.187296
0.249942
0.288786
0.312647
0.326516
0.333002
-9.07958e-07
1.71122e-05
0.00656987
-0.00154308
-0.0370217
-0.00604662
-0.00316396
-0.0269415
-0.0462757
-0.0758534
-0.112913
-0.158229
-0.210672
-0.268348
-0.328617
-0.388511
-0.445245
-0.496732
-0.541465
-0.578573
-0.607641
-0.628475
-0.641104
-0.645417
-0.641406
-0.628516
-0.605264
-0.570081
-0.521216
-0.456027
-0.371669
-0.268714
-0.155134
-0.0516293
0.0105666
0.00807585
-0.0560243
-0.154782
-0.259051
-0.351337
-0.425469
-0.481207
-0.520657
-0.546152
-0.559471
-0.56196
-0.55398
-0.535818
-0.507718
-0.464914
-0.396351
-0.299642
-0.175212
-0.0251774
0.110299
0.191202
0.240085
0.269584
0.286535
0.294428
-9.27664e-07
2.51981e-05
0.00679883
-0.00122103
-0.0356226
-0.00248825
0.00240225
-0.0182239
-0.0335457
-0.0581973
-0.0896286
-0.129042
-0.175901
-0.228992
-0.286247
-0.345057
-0.402715
-0.456897
-0.505777
-0.548031
-0.58286
-0.609864
-0.628878
-0.639866
-0.642937
-0.637782
-0.623127
-0.597698
-0.560274
-0.508578
-0.438539
-0.347177
-0.234314
-0.108211
0.00798205
0.0678502
0.0649353
0.000792507
-0.110627
-0.226109
-0.326715
-0.406348
-0.465417
-0.506704
-0.532831
-0.545989
-0.547611
-0.538223
-0.518345
-0.488399
-0.441878
-0.367613
-0.266513
-0.143046
-0.00598087
0.104559
0.169774
0.208601
0.230743
0.24094
-9.43574e-07
3.31716e-05
0.00702047
-0.000834726
-0.0341831
0.000996818
0.00770879
-0.00991185
-0.0215219
-0.0415787
-0.0676574
-0.101255
-0.142302
-0.190198
-0.243487
-0.299994
-0.35732
-0.413091
-0.465231
-0.512037
-0.552282
-0.585246
-0.610565
-0.628144
-0.637877
-0.639885
-0.633193
-0.616386
-0.58899
-0.549492
-0.49419
-0.418969
-0.319961
-0.196237
-0.0561586
0.0648814
0.117566
0.113976
0.0553515
-0.0636007
-0.191448
-0.300859
-0.386012
-0.448306
-0.491133
-0.51773
-0.530548
-0.531142
-0.520617
-0.499867
-0.469245
-0.420337
-0.344178
-0.24701
-0.137101
-0.0261177
0.0653391
0.119939
0.1509
0.165042
-9.55986e-07
4.07761e-05
0.00722906
-0.000403757
-0.0327388
0.00432148
0.0126958
-0.00205188
-0.0102394
-0.0260319
-0.0470466
-0.0749751
-0.110115
-0.152373
-0.200874
-0.253979
-0.309668
-0.365765
-0.420058
-0.47053
-0.515644
-0.554299
-0.585826
-0.609899
-0.626224
-0.63506
-0.635794
-0.627059
-0.608463
-0.579404
-0.537484
-0.478422
-0.39769
-0.290431
-0.154863
0.000753824
0.114002
0.160596
0.156448
0.102476
-0.0131141
-0.154339
-0.272813
-0.363503
-0.428938
-0.473259
-0.500258
-0.512702
-0.512673
-0.501938
-0.482117
-0.453082
-0.404818
-0.332916
-0.248922
-0.161801
-0.0813372
-0.0142675
0.0317544
0.0528546
-9.65396e-07
4.78247e-05
0.00742165
4.96821e-05
-0.0313305
0.00743489
0.0173345
0.00526343
0.000276824
-0.0115776
-0.0278461
-0.0503277
-0.0795724
-0.115899
-0.158952
-0.207666
-0.260504
-0.315566
-0.370694
-0.423816
-0.473047
-0.516952
-0.554468
-0.584936
-0.607942
-0.623417
-0.631295
-0.63029
-0.619643
-0.599607
-0.569069
-0.524422
-0.461556
-0.375041
-0.259066
-0.11058
0.0554288
0.156483
0.198142
0.193755
0.144135
0.0393065
-0.112858
-0.240984
-0.337521
-0.406264
-0.452263
-0.479901
-0.492653
-0.493153
-0.484022
-0.467783
-0.443502
-0.399971
-0.338798
-0.273913
-0.211991
-0.158803
-0.119777
-0.0991015
-9.72496e-07
5.40423e-05
0.00759274
0.000496936
-0.0300076
0.0102803
0.0215724
0.0118442
0.00977566
0.00173071
-0.0101114
-0.0274137
-0.0508767
-0.0811181
-0.11823
-0.161685
-0.210464
-0.263083
-0.317653
-0.372147
-0.424556
-0.473025
-0.516113
-0.552808
-0.582508
-0.604627
-0.619451
-0.626098
-0.623201
-0.611226
-0.590177
-0.557855
-0.510604
-0.443831
-0.351309
-0.226053
-0.0634952
0.102571
0.193793
0.231653
0.227576
0.182484
0.0885304
-0.0641023
-0.203015
-0.30634
-0.379165
-0.427529
-0.456848
-0.471399
-0.474479
-0.469505
-0.459936
-0.443156
-0.408112
-0.361818
-0.317073
-0.277513
-0.247002
-0.23051
-9.77741e-07
5.92836e-05
0.0077394
0.000918986
-0.0288006
0.0128331
0.0253963
0.0177138
0.0181552
0.0135489
0.00609809
-0.00624429
-0.024116
-0.048272
-0.0791444
-0.116685
-0.160395
-0.209268
-0.261812
-0.316191
-0.370401
-0.422437
-0.470495
-0.513143
-0.549347
-0.578412
-0.600077
-0.614204
-0.619312
-0.614931
-0.602103
-0.580168
-0.545995
-0.496176
-0.425425
-0.326635
-0.191334
-0.0129261
0.144239
0.22761
0.262736
0.259624
0.219471
0.136441
-0.00360675
-0.156089
-0.268209
-0.346719
-0.399231
-0.432318
-0.451029
-0.459419
-0.461479
-0.460381
-0.452216
-0.428791
-0.398313
-0.370418
-0.349185
-0.337429
-9.8113e-07
6.3562e-05
0.00786228
0.0013169
-0.027705
0.0151114
0.0288437
0.0229501
0.0255556
0.0238515
0.0202031
0.0128384
0.000610808
-0.017597
-0.042132
-0.0733211
-0.111128
-0.155073
-0.204126
-0.256766
-0.311201
-0.365374
-0.417333
-0.465335
-0.507907
-0.544037
-0.572755
-0.594285
-0.607584
-0.611051
-0.605796
-0.592546
-0.569481
-0.533611
-0.481157
-0.40626
-0.30072
-0.154124
0.0395002
0.182531
0.259603
0.292892
0.291323
0.256497
0.184279
0.0645848
-0.0968978
-0.221622
-0.309048
-0.368841
-0.40867
-0.43464
-0.451145
-0.461641
-0.469413
-0.469977
-0.457811
-0.441881
-0.427982
-0.419797
-9.82706e-07
6.68945e-05
0.00796169
0.00168672
-0.0267293
0.0171117
0.0319161
0.0275821
0.0320613
0.0328215
0.0323422
0.0291071
0.0222966
0.010639
-0.00734288
-0.0319223
-0.0632102
-0.101186
-0.145338
-0.194657
-0.247653
-0.302453
-0.357066
-0.409526
-0.457912
-0.50073
-0.536862
-0.565709
-0.587113
-0.599259
-0.601574
-0.596005
-0.582426
-0.558165
-0.520592
-0.465319
-0.38588
-0.272649
-0.112755
0.0885102
0.219383
0.291275
0.323345
0.323689
0.294188
0.232136
0.130363
-0.0225236
-0.166491
-0.268198
-0.339556
-0.38978
-0.425641
-0.451635
-0.470845
-0.4853
-0.492528
-0.49141
-0.486528
-0.483234
-9.8276e-07
6.91895e-05
0.0080359
0.0020201
-0.0258842
0.0188361
0.0346358
0.0316717
0.0377918
0.0406682
0.0428586
0.0430352
0.0406083
0.0346313
0.0239847
0.00721872
-0.0170456
-0.04829
-0.0863953
-0.130845
-0.180621
-0.234269
-0.28989
-0.345399
-0.398672
-0.447796
-0.491291
-0.527733
-0.557164
-0.578412
-0.589343
-0.591256
-0.585709
-0.571485
-0.546086
-0.506638
-0.448227
-0.363452
-0.240976
-0.0642245
0.13623
0.256365
0.323645
0.354687
0.356876
0.332283
0.279074
0.191662
0.0597934
-0.105809
-0.228693
-0.316353
-0.379794
-0.426806
-0.462039
-0.487819
-0.507119
-0.518856
-0.524736
-0.527347
-9.81167e-07
7.04795e-05
0.0080854
0.00231825
-0.0251682
0.0202906
0.0370186
0.0352612
0.0428319
0.0475448
0.0520155
0.0550529
0.0562236
0.0548054
0.0499822
0.0407309
0.0257225
0.00314124
-0.0279217
-0.0661458
-0.111048
-0.161598
-0.216247
-0.273036
-0.32978
-0.384336
-0.434711
-0.479367
-0.516789
-0.547177
-0.568236
-0.578237
-0.580065
-0.574524
-0.559403
-0.532764
-0.491071
-0.428881
-0.337503
-0.203093
-0.00387292
0.184134
0.29415
0.356903
0.386742
0.39034
0.3696
0.322987
0.245418
0.126792
-0.0470224
-0.198019
-0.304842
-0.382282
-0.439104
-0.481087
-0.511133
-0.532049
-0.545182
-0.551476
-9.77825e-07
7.08877e-05
0.00811294
0.00258824
-0.0245745
0.0214828
0.0390702
0.0383605
0.0472105
0.0535261
0.0599684
0.065441
0.0696189
0.0719314
0.0717599
0.0683554
0.0607913
0.0478676
0.0279664
-0.00120377
-0.0396151
-0.0851418
-0.136779
-0.192932
-0.251479
-0.310147
-0.36661
-0.418852
-0.464937
-0.504024
-0.535299
-0.555817
-0.565705
-0.567768
-0.561906
-0.54593
-0.51767
-0.473196
-0.406208
-0.306285
-0.156092
0.0645645
0.232169
0.332305
0.390362
0.41858
0.422676
0.404192
0.361331
0.288627
0.174751
-0.00310248
-0.184773
-0.309613
-0.397353
-0.459908
-0.504376
-0.534665
-0.553461
-0.562469
-9.72388e-07
7.0388e-05
0.00811864
0.00284663
-0.0240585
0.022497
0.0409236
0.0411557
0.0511637
0.0588982
0.0670553
0.0746079
0.0813094
0.0866998
0.0902962
0.0915231
0.0897027
0.0840102
0.0733747
0.0563512
0.0308928
-0.0058777
-0.0524572
-0.105732
-0.163953
-0.224949
-0.286194
-0.345185
-0.399816
-0.447877
-0.489129
-0.521489
-0.541634
-0.551596
-0.553931
-0.547548
-0.530472
-0.500166
-0.452121
-0.378957
-0.268034
-0.0967421
0.130524
0.279132
0.36962
0.422667
0.448455
0.451844
0.433591
0.391417
0.318612
0.201337
0.0105264
-0.195101
-0.330287
-0.421371
-0.48349
-0.524849
-0.550231
-0.562516
-9.64616e-07
6.90611e-05
0.00810426
0.00310456
-0.0236025
0.0233677
0.0426433
0.0437495
0.0548448
0.0638789
0.0735704
0.082941
0.0917967
0.09975
0.106407
0.111314
0.113949
0.113723
0.109892
0.101503
0.0872625
0.0653952
0.0333784
-0.0122315
-0.0675739
-0.128352
-0.192222
-0.256554
-0.318635
-0.376339
-0.427353