/*--------------------------------*- C++ -*----------------------------------*\
| =========                 |                                                 |
| \\      /  F ield         | OpenFOAM: The Open Source CFD Toolbox           |
|  \\    /   O peration     | Version:  2212                                  |
|   \\  /    A nd           | Website:  www.openfoam.com                      |
|    \\/     M anipulation  |                                                 |
\*---------------------------------------------------------------------------*/
FoamFile
{
    version     2.0;
    format      ascii;
    arch        "LSB;label=32;scalar=64";
    class       volScalarField;
    location    "1";
    object      theta2_Scaled_;
}
// * * * * * * * * * * * * * * * * * * * * * * * * * * * * * * * * * * * * * //

dimensions      [0 0 0 0 0 0 0];

internalField   nonuniform List<scalar> 
3600
(
-1.5888e-05
-7.76335e-05
-0.000208271
-0.00041749
-0.000716296
-0.00111236
-0.00160129
-0.00216011
-0.00275271
-0.00334094
-0.00389563
-0.00440082
-0.00485304
-0.00525715
-0.00562218
-0.00595782
-0.00627243
-0.00657207
-0.00686074
-0.00714137
-0.00741535
-0.00768209
-0.00794125
-0.00819313
-0.00843766
-0.00867445
-0.00890291
-0.00912232
-0.00933198
-0.00953109
-0.00971883
-0.00989429
-0.0100565
-0.0102043
-0.010337
-0.010454
-0.0105552
-0.0106411
-0.0107121
-0.010769
-0.0108128
-0.0108443
-0.0108641
-0.0108724
-0.0108691
-0.0108548
-0.0108281
-0.0107885
-0.0107351
-0.0106668
-0.0105818
-0.0104774
-0.0103504
-0.0101966
-0.0100117
-0.00979328
-0.00954492
-0.00928467
-0.00905347
-0.00891146
-7.76335e-05
-0.00245534
-0.00856994
-0.0162375
-0.0264786
-0.0396366
-0.0552671
-0.0722321
-0.0893088
-0.105482
-0.120129
-0.133027
-0.144252
-0.154041
-0.162689
-0.170471
-0.177614
-0.184277
-0.190566
-0.196557
-0.202289
-0.207769
-0.213003
-0.218005
-0.222785
-0.227341
-0.231673
-0.235775
-0.239642
-0.243269
-0.246648
-0.249771
-0.252629
-0.25521
-0.257507
-0.259518
-0.261248
-0.262704
-0.263902
-0.264861
-0.265595
-0.266122
-0.266452
-0.266591
-0.266538
-0.266299
-0.265854
-0.265192
-0.264298
-0.263149
-0.261711
-0.259937
-0.257761
-0.255104
-0.251876
-0.248015
-0.243562
-0.238825
-0.234555
-0.231903
-0.000208271
-0.00856994
-0.0634791
-0.145707
-0.219881
-0.289096
-0.352577
-0.407081
-0.452033
-0.488233
-0.517089
-0.540079
-0.558547
-0.57361
-0.586148
-0.596827
-0.606126
-0.614381
-0.621816
-0.628588
-0.634796
-0.640517
-0.6458
-0.650693
-0.65523
-0.659436
-0.663331
-0.666932
-0.670251
-0.673299
-0.676085
-0.678615
-0.680893
-0.682922
-0.684705
-0.686248
-0.687562
-0.688657
-0.68955
-0.69026
-0.690801
-0.691187
-0.691428
-0.69153
-0.691491
-0.691315
-0.69099
-0.690505
-0.689848
-0.688998
-0.687927
-0.686593
-0.684937
-0.682886
-0.680351
-0.677253
-0.673592
-0.669594
-0.665896
-0.663554
-0.00041749
-0.0162375
-0.145707
-0.394157
-0.55431
-0.633106
-0.677659
-0.706678
-0.727526
-0.743395
-0.755878
-0.76589
-0.774019
-0.78069
-0.78623
-0.790894
-0.794882
-0.798346
-0.801399
-0.804128
-0.806594
-0.808834
-0.810877
-0.812747
-0.814462
-0.816036
-0.817482
-0.818807
-0.82002
-0.821127
-0.822132
-0.82304
-0.823853
-0.824574
-0.825203
-0.825745
-0.826204
-0.826583
-0.826888
-0.827128
-0.82731
-0.827436
-0.827514
-0.827544
-0.827529
-0.827464
-0.827352
-0.827186
-0.826961
-0.82667
-0.826302
-0.825841
-0.825264
-0.824539
-0.823631
-0.822501
-0.821141
-0.819629
-0.81821
-0.817303
-0.000716297
-0.0264786
-0.219882
-0.55431
-0.728649
-0.788234
-0.80942
-0.818439
-0.823474
-0.827299
-0.830806
-0.834228
-0.83749
-0.840495
-0.843167
-0.845492
-0.847489
-0.849203
-0.850682
-0.851995
-0.853193
-0.854261
-0.855221
-0.856087
-0.85687
-0.857579
-0.858224
-0.858809
-0.859341
-0.859821
-0.860255
-0.860643
-0.860987
-0.86129
-0.861551
-0.861772
-0.861955
-0.862104
-0.862219
-0.862306
-0.862368
-0.862408
-0.862427
-0.862431
-0.862418
-0.862383
-0.862334
-0.862265
-0.862174
-0.862057
-0.861908
-0.861718
-0.861476
-0.861164
-0.860756
-0.860231
-0.859574
-0.858822
-0.858102
-0.857636
-0.00111237
-0.0396366
-0.289097
-0.633106
-0.788235
-0.838317
-0.853938
-0.857896
-0.857767
-0.856789
-0.856285
-0.856629
-0.857653
-0.859113
-0.860723
-0.862295
-0.863721
-0.864963
-0.866023
-0.866929
-0.867707
-0.868375
-0.868958
-0.869469
-0.869919
-0.870318
-0.870672
-0.870989
-0.871273
-0.871526
-0.871751
-0.871949
-0.872121
-0.872269
-0.872394
-0.872496
-0.872576
-0.872636
-0.872678
-0.872703
-0.872717
-0.872717
-0.87271
-0.872695
-0.872677
-0.872646
-0.872614
-0.872576
-0.872527
-0.872467
-0.87239
-0.87229
-0.872158
-0.87198
-0.871737
-0.871408
-0.870984
-0.870488
-0.870011
-0.869703
-0.00160129
-0.0552673
-0.352577
-0.677659
-0.80942
-0.853938
-0.869405
-0.873211
-0.872158
-0.869665
-0.867353
-0.865893
-0.865389
-0.865707
-0.866516
-0.867578
-0.868692
-0.869737
-0.870657
-0.871434
-0.872072
-0.872599
-0.873041
-0.873409
-0.873718
-0.873983
-0.874208
-0.874402
-0.87457
-0.874715
-0.874839
-0.874945
-0.875033
-0.875105
-0.875161
-0.875202
-0.87523
-0.875243
-0.875244
-0.875235
-0.875219
-0.875194
-0.875168
-0.875137
-0.875109
-0.875072
-0.87504
-0.875007
-0.874972
-0.874929
-0.874877
-0.87481
-0.874718
-0.874588
-0.874403
-0.874149
-0.87382
-0.873444
-0.873092
-0.872872
-0.00216012
-0.0722323
-0.407082
-0.706678
-0.81844
-0.857896
-0.873211
-0.877837
-0.877431
-0.87501
-0.872169
-0.869767
-0.868194
-0.867505
-0.867544
-0.868068
-0.868859
-0.869736
-0.870585
-0.871346
-0.871996
-0.872536
-0.872983
-0.873345
-0.873638
-0.873878
-0.874072
-0.874231
-0.874362
-0.874468
-0.874555
-0.874623
-0.874674
-0.874712
-0.874737
-0.87475
-0.874751
-0.874739
-0.874718
-0.874687
-0.874651
-0.874607
-0.874563
-0.874515
-0.874474
-0.874423
-0.874379
-0.874338
-0.874296
-0.874249
-0.874193
-0.874123
-0.874028
-0.873895
-0.87371
-0.873463
-0.873158
-0.872832
-0.872551
-0.872389
-0.00275272
-0.0893092
-0.452033
-0.727527
-0.823474
-0.857768
-0.872159
-0.877432
-0.878021
-0.876359
-0.873778
-0.87112
-0.868925
-0.867458
-0.866765
-0.866718
-0.86714
-0.86782
-0.868607
-0.869394
-0.870122
-0.870759
-0.871301
-0.871746
-0.872108
-0.872402
-0.872633
-0.872818
-0.872965
-0.873077
-0.873164
-0.873228
-0.873271
-0.873298
-0.873311
-0.873311
-0.8733
-0.873274
-0.873239
-0.873193
-0.873141
-0.873081
-0.873018
-0.872952
-0.87289
-0.872821
-0.872758
-0.872696
-0.872635
-0.872567
-0.872488
-0.872394
-0.87227
-0.872104
-0.871884
-0.871608
-0.871294
-0.870994
-0.870769
-0.870659
-0.00334095
-0.105482
-0.488234
-0.743395
-0.8273
-0.85679
-0.869666
-0.87501
-0.876359
-0.875626
-0.873768
-0.871411
-0.869065
-0.867114
-0.865783
-0.865124
-0.865061
-0.865436
-0.866079
-0.866849
-0.867646
-0.868401
-0.869081
-0.869663
-0.870154
-0.870559
-0.870881
-0.871141
-0.871343
-0.871496
-0.87161
-0.871693
-0.871746
-0.871774
-0.871787
-0.871781
-0.871763
-0.871726
-0.87168
-0.87162
-0.871553
-0.871476
-0.871392
-0.871304
-0.871218
-0.871125
-0.871036
-0.870946
-0.870856
-0.870756
-0.870642
-0.870508
-0.870339
-0.870123
-0.869852
-0.869534
-0.869205
-0.868933
-0.868772
-0.868717
-0.00389565
-0.12013
-0.51709
-0.755878
-0.830806
-0.856285
-0.867353
-0.872169
-0.873777
-0.873768
-0.872759
-0.871076
-0.869037
-0.866993
-0.865255
-0.864037
-0.863409
-0.86333
-0.863676
-0.864308
-0.86509
-0.865923
-0.866731
-0.867471
-0.868124
-0.868681
-0.869139
-0.869516
-0.86981
-0.87004
-0.870208
-0.870331
-0.870407
-0.87045
-0.870469
-0.870462
-0.87044
-0.870391
-0.870334
-0.87026
-0.870175
-0.870078
-0.86997
-0.869855
-0.869741
-0.869619
-0.869496
-0.869373
-0.869245
-0.869105
-0.868946
-0.868762
-0.868537
-0.868261
-0.867931
-0.86757
-0.867234
-0.867003
-0.866918
-0.866928
-0.00440085
-0.133028
-0.54008
-0.765891
-0.834228
-0.856629
-0.865893
-0.869766
-0.871119
-0.871411
-0.871076
-0.870171
-0.868761
-0.867029
-0.865245
-0.863685
-0.862553
-0.861946
-0.861848
-0.862174
-0.862799
-0.863601
-0.864474
-0.865341
-0.866153
-0.866881
-0.867507
-0.868036
-0.868461
-0.868798
-0.869053
-0.869239
-0.869357
-0.869428
-0.869464
-0.86946
-0.869436
-0.869374
-0.869304
-0.869212
-0.869106
-0.868985
-0.868848
-0.868702
-0.868554
-0.868398
-0.868234
-0.868073
-0.867899
-0.867712
-0.867501
-0.867259
-0.866972
-0.866631
-0.866244
-0.865848
-0.865518
-0.865347
-0.865353
-0.865434
-0.00485307
-0.144253
-0.558548
-0.774019
-0.83749
-0.857652
-0.865389
-0.868194
-0.868924
-0.869064
-0.869037
-0.868761
-0.868071
-0.866929
-0.86546
-0.863893
-0.862479
-0.86142
-0.860827
-0.860712
-0.861015
-0.861632
-0.86245
-0.863362
-0.864289
-0.865174
-0.865974
-0.866676
-0.867262
-0.867742
-0.868115
-0.868392
-0.86858
-0.868696
-0.868765
-0.868772
-0.868749
-0.868676
-0.868592
-0.86848
-0.86835
-0.8682
-0.868028
-0.867847
-0.867659
-0.867464
-0.867254
-0.867047
-0.866824
-0.866581
-0.866311
-0.866006
-0.865653
-0.865249
-0.864809
-0.864391
-0.864089
-0.863996
-0.864102
-0.864257
-0.00525719
-0.154042
-0.573611
-0.78069
-0.840494
-0.859112
-0.865706
-0.867504
-0.867456
-0.867113
-0.866992
-0.867029
-0.866929
-0.866453
-0.865538
-0.864286
-0.8629
-0.861612
-0.860616
-0.860036
-0.859906
-0.860186
-0.860793
-0.861622
-0.86257
-0.863554
-0.864505
-0.865378
-0.866143
-0.866792
-0.867315
-0.867714
-0.868002
-0.868192
-0.86831
-0.868346
-0.868332
-0.868256
-0.868159
-0.868028
-0.867872
-0.86769
-0.86748
-0.867256
-0.867025
-0.866785
-0.866524
-0.866264
-0.865987
-0.865682
-0.865349
-0.864978
-0.864558
-0.864095
-0.863613
-0.863191
-0.862936
-0.862937
-0.86315
-0.863377
-0.00562221
-0.162689
-0.586149
-0.78623
-0.843167
-0.860722
-0.866515
-0.867543
-0.866763
-0.865782
-0.865255
-0.865245
-0.86546
-0.865538
-0.865241
-0.864509
-0.863433
-0.862198
-0.861018
-0.86008
-0.859515
-0.859371
-0.859632
-0.860229
-0.861067
-0.862049
-0.863082
-0.864095
-0.865028
-0.865854
-0.86655
-0.867105
-0.867525
-0.867821
-0.868016
-0.8681
-0.868115
-0.868048
-0.867946
-0.867799
-0.867615
-0.867403
-0.867152
-0.866884
-0.866605
-0.866314
-0.865999
-0.865682
-0.865348
-0.864976
-0.864576
-0.864139
-0.863656
-0.863141
-0.862633
-0.862224
-0.862037
-0.862141
-0.862461
-0.862755
-0.00595785
-0.170472
-0.596828
-0.790894
-0.845492
-0.862294
-0.867577
-0.868067
-0.866717
-0.865124
-0.864037
-0.863685
-0.863893
-0.864286
-0.864509
-0.864348
-0.863758
-0.862824
-0.861715
-0.860627
-0.859744
-0.859194
-0.859043
-0.859289
-0.859877
-0.860725
-0.861734
-0.86281
-0.863871
-0.86486
-0.865734
-0.866458
-0.867036
-0.867467
-0.867762
-0.867924
-0.867988
-0.867951
-0.867861
-0.86771
-0.867509
-0.86727
-0.866982
-0.866667
-0.866342
-0.865999
-0.865627
-0.865251
-0.864859
-0.864419
-0.863951
-0.863452
-0.862914
-0.86236
-0.861842
-0.861468
-0.861364
-0.861576
-0.861998
-0.862352
-0.00627245
-0.177615
-0.606127
-0.794883
-0.84749
-0.863721
-0.868692
-0.868859
-0.867141
-0.865061
-0.863409
-0.862553
-0.86248
-0.862901
-0.863433
-0.863759
-0.863697
-0.863214
-0.862393
-0.861386
-0.860378
-0.859542
-0.859011
-0.858856
-0.859092
-0.859675
-0.860529
-0.861559
-0.862667
-0.863766
-0.864788
-0.865672
-0.866412
-0.866999
-0.867439
-0.867718
-0.867873
-0.867904
-0.867855
-0.867723
-0.867526
-0.867264
-0.866942
-0.866586
-0.86621
-0.865809
-0.86537
-0.864927
-0.864467
-0.863962
-0.863431
-0.86288
-0.862302
-0.861728
-0.861221
-0.860904
-0.860892
-0.861211
-0.861724
-0.86213
-0.00657211
-0.184278
-0.614381
-0.798346
-0.849202
-0.864962
-0.869736
-0.869735
-0.86782
-0.865437
-0.86333
-0.861946
-0.861421
-0.861612
-0.862199
-0.862825
-0.863215
-0.863219
-0.862815
-0.862079
-0.861155
-0.860215
-0.859422
-0.858908
-0.858754
-0.858982
-0.859559
-0.860413
-0.861449
-0.862562
-0.863658
-0.864684
-0.86559
-0.866357
-0.866974
-0.867415
-0.867706
-0.867853
-0.867886
-0.867803
-0.867633
-0.867368
-0.867029
-0.866638
-0.866214
-0.865751
-0.865241
-0.864725
-0.864187
-0.86361
-0.863006
-0.862397
-0.861787
-0.86122
-0.860751
-0.860511
-0.860599
-0.86102
-0.86161
-0.862054
-0.00686077
-0.190567
-0.621817
-0.8014
-0.850682
-0.866023
-0.870656
-0.870584
-0.868606
-0.866079
-0.863675
-0.861849
-0.860828
-0.860618
-0.861019
-0.861716
-0.862393
-0.862814
-0.862857
-0.862507
-0.861835
-0.860977
-0.86009
-0.859332
-0.858834
-0.85868
-0.858898
-0.859457
-0.860283
-0.861286
-0.86238
-0.863491
-0.864537
-0.865484
-0.866288
-0.866929
-0.8674
-0.867701
-0.867868
-0.867884
-0.867783
-0.86755
-0.867211
-0.8668
-0.866339
-0.865818
-0.865236
-0.864643
-0.864023
-0.863368
-0.862688
-0.862017
-0.861377
-0.860818
-0.860414
-0.860272
-0.860462
-0.860976
-0.861628
-0.862098
-0.0071414
-0.196558
-0.628588
-0.804129
-0.851997
-0.866929
-0.871435
-0.871347
-0.869396
-0.866851
-0.86431
-0.862176
-0.860714
-0.860037
-0.860082
-0.860629
-0.861387
-0.86208
-0.862506
-0.862565
-0.862246
-0.86162
-0.860809
-0.859962
-0.859229
-0.858738
-0.858572
-0.858752
-0.859253
-0.860031
-0.861009
-0.862109
-0.863232
-0.864318
-0.865307
-0.866164
-0.866853
-0.867362
-0.867713
-0.867882
-0.867894
-0.867744
-0.867437
-0.867034
-0.866561
-0.865986
-0.865343
-0.864675
-0.86397
-0.863233
-0.862481
-0.86175
-0.861082
-0.860536
-0.860197
-0.860162
-0.86046
-0.861056
-0.861751
-0.862236
-0.00741538
-0.20229
-0.634797
-0.806595
-0.853194
-0.867708
-0.872074
-0.871998
-0.870123
-0.867648
-0.865093
-0.862801
-0.861017
-0.859907
-0.859515
-0.859744
-0.860379
-0.861156
-0.861835
-0.862245
-0.862298
-0.861992
-0.861389
-0.860606
-0.859782
-0.859057
-0.858546
-0.858322
-0.858435
-0.85888
-0.859618
-0.860581
-0.86168
-0.862839
-0.863972
-0.865045
-0.865976
-0.866731
-0.867322
-0.867701
-0.867882
-0.867871
-0.867647
-0.867289
-0.866829
-0.866225
-0.865535
-0.864804
-0.864019
-0.863205
-0.862381
-0.861599
-0.860909
-0.860384
-0.86011
-0.860168
-0.860568
-0.861237
-0.861957
-0.862444
-0.00768213
-0.20777
-0.640517
-0.808834
-0.854261
-0.868375
-0.872599
-0.872537
-0.870759
-0.868401
-0.865921
-0.8636
-0.861632
-0.860186
-0.859372
-0.859194
-0.859542
-0.860214
-0.860976
-0.861618
-0.86199
-0.86202
-0.861704
-0.861103
-0.860323
-0.859489
-0.85872
-0.858142
-0.857848
-0.85789
-0.858274
-0.858972
-0.859916
-0.861039
-0.86225
-0.8635
-0.86467
-0.865706
-0.866581
-0.867236
-0.86764
-0.867825
-0.867757
-0.867497
-0.867084
-0.866483
-0.865778
-0.865
-0.864149
-0.863271
-0.862386
-0.861563
-0.860863
-0.860366
-0.860154
-0.860293
-0.86077
-0.861488
-0.862219
-0.862702
-0.0079413
-0.213004
-0.645801
-0.810877
-0.855222
-0.868958
-0.873041
-0.872983
-0.871301
-0.869079
-0.866729
-0.864473
-0.86245
-0.860793
-0.859632
-0.859043
-0.859011
-0.859421
-0.860089
-0.860805
-0.861386
-0.861702
-0.861685
-0.861335
-0.8607
-0.859871
-0.858969
-0.858124
-0.85746
-0.857075
-0.85703
-0.857342
-0.857994
-0.858954
-0.860152
-0.86151
-0.86289
-0.864208
-0.865387
-0.866356
-0.867047
-0.867491
-0.867645
-0.867563
-0.867252
-0.866713
-0.866028
-0.86523
-0.864343
-0.863418
-0.862491
-0.861641
-0.860943
-0.86048
-0.860328
-0.860536
-0.861067
-0.861803
-0.862523
-0.862989
-0.00819318
-0.218006
-0.650694
-0.812748
-0.856087
-0.869469
-0.873409
-0.873345
-0.871746
-0.869663
-0.86747
-0.865341
-0.863362
-0.861622
-0.860229
-0.859289
-0.858856
-0.858907
-0.859331
-0.859959
-0.860603
-0.861101
-0.861334
-0.861236
-0.860801
-0.860074
-0.85915
-0.858145
-0.857187
-0.856402
-0.855896
-0.855745
-0.85599
-0.856667
-0.857741
-0.859107
-0.860625
-0.862172
-0.863647
-0.864955
-0.865994
-0.866754
-0.867201
-0.867369
-0.867235
-0.866842
-0.866234
-0.865463
-0.864571
-0.863631
-0.862689
-0.86183
-0.861147
-0.860725
-0.860628
-0.86089
-0.861453
-0.862183
-0.862873
-0.863313
-0.00843771
-0.222785
-0.655231
-0.814462
-0.856869
-0.869918
-0.873718
-0.873638
-0.87211
-0.870155
-0.868124
-0.866154
-0.864289
-0.86257
-0.861067
-0.859878
-0.859092
-0.858753
-0.858834
-0.859228
-0.859781
-0.860321
-0.8607
-0.860798
-0.860565
-0.859992
-0.859133
-0.858066
-0.85691
-0.855793
-0.85485
-0.854209
-0.85399
-0.854306
-0.855143
-0.856396
-0.857933
-0.859609
-0.86132
-0.862945
-0.864358
-0.865497
-0.866305
-0.866788
-0.866929
-0.866755
-0.866313
-0.865634
-0.864799
-0.863886
-0.862958
-0.862122
-0.861472
-0.861096
-0.861047
-0.861346
-0.861919
-0.862622
-0.863266
-0.863672
-0.0086745
-0.227342
-0.659437
-0.816037
-0.857579
-0.870318
-0.873983
-0.873878
-0.872402
-0.87056
-0.868681
-0.866882
-0.865174
-0.863554
-0.862049
-0.860725
-0.859675
-0.858981
-0.85868
-0.858738
-0.859055
-0.859487
-0.85987
-0.860071
-0.859991
-0.859577
-0.858823
-0.857769
-0.856505
-0.855148
-0.853846
-0.852768
-0.852161
-0.852139
-0.852646
-0.853616
-0.854945
-0.856585
-0.858427
-0.860289
-0.862039
-0.863579
-0.864796
-0.86569
-0.866202
-0.866348
-0.86616
-0.86568
-0.864966
-0.864145
-0.863281
-0.862501
-0.861908
-0.861583
-0.861577
-0.861894
-0.862459
-0.863118
-0.863702
-0.864071
-0.00890296
-0.231674
-0.663332
-0.817482
-0.858224
-0.870672
-0.874208
-0.874072
-0.872633
-0.870882
-0.869139
-0.867508
-0.865975
-0.864504
-0.863081
-0.861734
-0.860529
-0.859558
-0.858897
-0.858572
-0.858544
-0.858718
-0.858966
-0.859146
-0.85913
-0.858822
-0.858169
-0.857168
-0.855873
-0.854383
-0.852851
-0.851552
-0.850758
-0.850433
-0.850537
-0.851057
-0.851993
-0.853391
-0.855111
-0.85702
-0.859019
-0.860931
-0.862581
-0.86394
-0.864912
-0.865472
-0.865656
-0.86549
-0.865011
-0.864359
-0.863625
-0.862949
-0.862438
-0.862175
-0.862207
-0.862529
-0.863064
-0.863663
-0.86418
-0.864505
-0.00912239
-0.235776
-0.666933
-0.818807
-0.858809
-0.87099
-0.874402
-0.874232
-0.87282
-0.871141
-0.869515
-0.868034
-0.866674
-0.865378
-0.864093
-0.862809
-0.861559
-0.860414
-0.859457
-0.858751
-0.858321
-0.85814
-0.858122
-0.85814
-0.858062
-0.857767
-0.857166
-0.856221
-0.854959
-0.853458
-0.851925
-0.850674
-0.849757
-0.849107
-0.84879
-0.848866
-0.849389
-0.850368
-0.851719
-0.853455
-0.855453
-0.857542
-0.859597
-0.861424
-0.862927
-0.864009
-0.864696
-0.864956
-0.864838
-0.864462
-0.863944
-0.863433
-0.863041
-0.862855
-0.862922
-0.863237
-0.863726
-0.864251
-0.864694
-0.864969
-0.00933206
-0.239644
-0.670252
-0.82002
-0.85934
-0.871272
-0.874569
-0.87436
-0.872963
-0.871341
-0.869809
-0.86846
-0.867262
-0.866145
-0.86503
-0.863873
-0.862669
-0.86145
-0.860283
-0.859252
-0.858433
-0.857846
-0.857459
-0.857185
-0.856907
-0.856501
-0.85587
-0.854955
-0.853771
-0.852415
-0.85111
-0.849973
-0.848895
-0.847944
-0.847249
-0.846924
-0.847037
-0.847573
-0.848557
-0.849969
-0.851693
-0.853727
-0.855924
-0.858121
-0.860165
-0.861831
-0.863122
-0.86395
-0.864333
-0.864369
-0.864174
-0.863907
-0.863682
-0.863597
-0.863704
-0.864007
-0.864436
-0.864882
-0.865241
-0.865467
-0.00953119
-0.243271
-0.6733
-0.821127
-0.859821
-0.871526
-0.874715
-0.874468
-0.873078
-0.871496
-0.870038
-0.868799
-0.867741
-0.866789
-0.865855
-0.864864
-0.863769
-0.862563
-0.861286
-0.86003
-0.858879
-0.857889
-0.857074
-0.8564
-0.855789
-0.855144
-0.854378
-0.853455
-0.852414
-0.851353
-0.850327
-0.849226
-0.848011
-0.846822
-0.845791
-0.845072
-0.844762
-0.844907
-0.84554
-0.846613
-0.848078
-0.849898
-0.85196
-0.854271
-0.856624
-0.858866
-0.860847
-0.862359
-0.863387
-0.86399
-0.864238
-0.864307
-0.864316
-0.864369
-0.86453
-0.86482
-0.865185
-0.865551
-0.865823
-0.866003
-0.00971895
-0.24665
-0.676086
-0.822133
-0.860255
-0.87175
-0.874839
-0.874554
-0.873163
-0.87161
-0.870208
-0.869053
-0.868116
-0.867313
-0.86655
-0.865736
-0.864791
-0.863663
-0.862385
-0.861012
-0.859619
-0.858274
-0.85703
-0.855895
-0.854848
-0.853843
-0.852848
-0.851924
-0.851109
-0.850326
-0.849427
-0.848309
-0.847015
-0.845654
-0.844356
-0.843281
-0.842556
-0.842284
-0.842519
-0.843265
-0.844498
-0.846116
-0.848051
-0.850276
-0.852662
-0.855264
-0.857792
-0.860082
-0.861876
-0.863191
-0.864035
-0.864553
-0.864883
-0.865129
-0.865375
-0.865663
-0.865977
-0.866256
-0.866446
-0.866577
-0.00989442
-0.249773
-0.678617
-0.82304
-0.860643
-0.871948
-0.874944
-0.874622
-0.873227
-0.871692
-0.87033
-0.869238
-0.868391
-0.867713
-0.867107
-0.866463
-0.865678
-0.864687
-0.863492
-0.862107
-0.86058
-0.858971
-0.857342
-0.855744
-0.854206
-0.852763
-0.851548
-0.850673
-0.849972
-0.849224
-0.848309
-0.847172
-0.845841
-0.844372
-0.842878
-0.841507
-0.840409
-0.839709
-0.839519
-0.839873
-0.840792
-0.84222
-0.844082
-0.846257
-0.848701
-0.851377
-0.854185
-0.857044
-0.859693
-0.861852
-0.863436
-0.864547
-0.865306
-0.865824
-0.866203
-0.866519
-0.866792
-0.866993
-0.867115
-0.867193
-0.0100566
-0.252631
-0.680895
-0.823854
-0.860987
-0.872121
-0.875033
-0.874674
-0.873272
-0.871747
-0.87041
-0.869359
-0.86858
-0.868004
-0.867532
-0.867044
-0.866422
-0.865598
-0.864546
-0.863239
-0.861684
-0.859917
-0.857995
-0.85599
-0.853987
-0.852157
-0.850756
-0.849756
-0.848895
-0.848013
-0.847016
-0.845834
-0.844465
-0.842928
-0.841298
-0.839701
-0.838285
-0.83719
-0.836558
-0.836481
-0.837005
-0.838152
-0.839861
-0.84204
-0.844606
-0.84738
-0.850357
-0.853498
-0.856771
-0.859846
-0.862317
-0.86417
-0.865489
-0.86638
-0.866963
-0.867355
-0.867614
-0.867767
-0.867839
-0.867869
-0.0102045
-0.255213
-0.682924
-0.824574
-0.86129
-0.872269
-0.875105
-0.874712
-0.873298
-0.871775
-0.870451
-0.86943
-0.868699
-0.868197
-0.867828
-0.867479
-0.867012
-0.86637
-0.865489
-0.864327
-0.862844
-0.86104
-0.858956
-0.856668
-0.854306
-0.852139
-0.850435
-0.849109
-0.847943
-0.846821
-0.845652
-0.844366
-0.842926
-0.841328
-0.839599
-0.837833
-0.836154
-0.834705
-0.833646
-0.83311
-0.8332
-0.833967
-0.835422
-0.837501
-0.840112
-0.8431
-0.846339
-0.849757
-0.853327
-0.857088
-0.860537
-0.863282
-0.865308
-0.866704
-0.867594
-0.868131
-0.868428
-0.86857
-0.868601
-0.8686
-0.0103372
-0.257511
-0.684708
-0.825204
-0.861551
-0.872394
-0.875161
-0.874737
-0.873312
-0.871787
-0.87047
-0.869463
-0.868763
-0.868307
-0.86801
-0.867757
-0.867433
-0.86697
-0.866285
-0.865306
-0.863976
-0.86225
-0.860151
-0.85774
-0.855142
-0.852648
-0.85054
-0.848792
-0.847249
-0.845789
-0.844353
-0.842873
-0.841298
-0.839605
-0.837784
-0.835878
-0.833992
-0.832238
-0.830784
-0.829787
-0.82941
-0.829737
-0.830833
-0.832697
-0.835251
-0.83837
-0.841912
-0.845723
-0.849662
-0.853752
-0.857972
-0.861717
-0.864609
-0.866664
-0.867996
-0.868796
-0.869207
-0.869374
-0.869393
-0.869397
-0.0104543
-0.259524
-0.686252
-0.825747
-0.861773
-0.872496
-0.875202
-0.874749
-0.87331
-0.87178
-0.87046
-0.869457
-0.868769
-0.868341
-0.868094
-0.867918
-0.867713
-0.867404
-0.866914
-0.86615
-0.865027
-0.863488
-0.861499
-0.859104
-0.856398
-0.853622
-0.85106
-0.848866
-0.846922
-0.84507
-0.843279
-0.841505
-0.839703
-0.837838
-0.835886
-0.833841
-0.83176
-0.829753
-0.827959
-0.826531
-0.825668
-0.825517
-0.826168
-0.827704
-0.830086
-0.833217
-0.836964
-0.84115
-0.845591
-0.850087
-0.854703
-0.859307
-0.863206
-0.866092
-0.868038
-0.869241
-0.869878
-0.870151
-0.87021
-0.87022
-0.0105556
-0.261255
-0.687567
-0.826206
-0.861956
-0.872576
-0.875229
-0.87475
-0.873299
-0.871761
-0.870437
-0.869432
-0.868743
-0.868326
-0.86811
-0.867982
-0.867871
-0.867701
-0.867398
-0.866859
-0.865979
-0.864676
-0.862895
-0.860638
-0.857945
-0.854951
-0.851996
-0.849388
-0.847033
-0.844758
-0.842554
-0.840407
-0.83829
-0.836162
-0.833999
-0.831772
-0.829499
-0.827258
-0.825151
-0.823329
-0.821991
-0.821341
-0.821502
-0.822597
-0.824683
-0.827698
-0.831532
-0.835989
-0.840867
-0.845925
-0.850944
-0.856019
-0.860872
-0.864758
-0.867513
-0.869302
-0.870321
-0.870797
-0.87098
-0.871029
-0.0106414
-0.26271
-0.688662
-0.826584
-0.862105
-0.872637
-0.875244
-0.874739
-0.873274
-0.871727
-0.870393
-0.869377
-0.868681
-0.868262
-0.868056
-0.867958
-0.867906
-0.867851
-0.86771
-0.867371
-0.866736
-0.865703
-0.864195
-0.862162
-0.859597
-0.856572
-0.853381
-0.850359
-0.847563
-0.844897
-0.842277
-0.839706
-0.837187
-0.834702
-0.832236
-0.829752
-0.827248
-0.824759
-0.822362
-0.820184
-0.818401
-0.817235
-0.816871
-0.81745
-0.819128
-0.821892
-0.825666
-0.83027
-0.835479
-0.841022
-0.846607
-0.852032
-0.857448
-0.862367
-0.866115
-0.868705
-0.870311
-0.871153
-0.871545
-0.871682
-0.0107124
-0.263909
-0.689556
-0.826891
-0.862221
-0.87268
-0.875246
-0.87472
-0.873241
-0.871681
-0.870335
-0.869304
-0.868592
-0.868162
-0.86795
-0.867865
-0.86786
-0.86789
-0.867872
-0.86772
-0.86732
-0.866571
-0.865369
-0.863629
-0.861302
-0.858408
-0.855094
-0.8517
-0.84854
-0.845523
-0.842503
-0.839504
-0.836545
-0.833636
-0.830777
-0.827944
-0.825133
-0.822351
-0.819651
-0.817126
-0.814931
-0.813254
-0.812317
-0.812358
-0.8135
-0.815878
-0.819444
-0.824046
-0.82946
-0.835379
-0.841471
-0.847411
-0.853106
-0.858666
-0.863509
-0.867102
-0.869509
-0.870916
-0.871658
-0.87197
-0.0107695
-0.264869
-0.690267
-0.827131
-0.862308
-0.872705
-0.875237
-0.87469
-0.873196
-0.871624
-0.870263
-0.869215
-0.868483
-0.868029
-0.867798
-0.867707
-0.867718
-0.867794
-0.867872
-0.867872
-0.867698
-0.867221
-0.866328
-0.864916
-0.862909
-0.860248
-0.856979
-0.853411
-0.849933
-0.846587
-0.843241
-0.839851
-0.836461
-0.833093
-0.829771
-0.826515
-0.823315
-0.820159
-0.817111
-0.814215
-0.811599
-0.809423
-0.807927
-0.807359
-0.807903
-0.809747
-0.812954
-0.81738
-0.822831
-0.828998
-0.835491
-0.841946
-0.848065
-0.853827
-0.859378
-0.86407
-0.867435
-0.869622
-0.870872
-0.871444
-0.0108136
-0.265608
-0.690811
-0.827314
-0.862371
-0.872719
-0.875221
-0.874652
-0.873143
-0.871554
-0.870175
-0.869104
-0.868345
-0.867863
-0.867604
-0.867492
-0.867502
-0.867603
-0.867747
-0.867862
-0.867859
-0.867627
-0.86704
-0.865975
-0.864315
-0.861989
-0.858966
-0.855395
-0.851651
-0.848041
-0.844465
-0.840763
-0.836979
-0.833178
-0.829389
-0.825642
-0.82197
-0.818372
-0.814899
-0.81158
-0.808507
-0.805834
-0.803747
-0.802522
-0.802416
-0.803629
-0.806289
-0.810371
-0.815669
-0.82191
-0.828667
-0.835533
-0.84217
-0.848243
-0.853907
-0.85924
-0.863589
-0.866657
-0.868547
-0.869464
-0.0108452
-0.266137
-0.691199
-0.827441
-0.862411
-0.872719
-0.875196
-0.874608
-0.873082
-0.871476
-0.870077
-0.868983
-0.868196
-0.867686
-0.867396
-0.867256
-0.867245
-0.867349
-0.867532
-0.867719
-0.867842
-0.867789
-0.867454
-0.866718
-0.865449
-0.863533
-0.860877
-0.857485
-0.853679
-0.849859
-0.846082
-0.842191
-0.838127
-0.833945
-0.829716
-0.82549
-0.821309
-0.817195
-0.813217
-0.809401
-0.80582
-0.802596
-0.799902
-0.798008
-0.797164
-0.797621
-0.799579
-0.803119
-0.808064
-0.81417
-0.821014
-0.828176
-0.835217
-0.841785
-0.847613
-0.852884
-0.857678
-0.861455
-0.863999
-0.865256
-0.0108649
-0.266466
-0.691438
-0.827517
-0.862429
-0.87271
-0.875167
-0.874563
-0.873019
-0.871393
-0.869971
-0.86885
-0.868031
-0.867483
-0.867156
-0.866983
-0.86694
-0.867023
-0.867205
-0.867438
-0.867651
-0.86775
-0.867638
-0.867209
-0.866306
-0.864794
-0.862567
-0.859572
-0.855894
-0.851931
-0.848025
-0.844059
-0.839837
-0.8354
-0.830811
-0.826137
-0.821465
-0.816827
-0.812288
-0.807915
-0.803753
-0.799927
-0.796585
-0.793949
-0.792286
-0.791897
-0.793023
-0.795767
-0.800133
-0.805892
-0.812623
-0.819857
-0.827163
-0.8341
-0.840355
-0.845645
-0.850257
-0.854113
-0.856883
-0.858336
-0.010873
-0.266602
-0.691537
-0.827547
-0.862432
-0.872696
-0.875138
-0.874517
-0.872953
-0.871305
-0.869857
-0.868705
-0.867851
-0.867263
-0.866893
-0.866678
-0.866598
-0.866648
-0.866816
-0.867053
-0.867303
-0.867507
-0.867569
-0.867383
-0.866811
-0.865714
-0.863958
-0.861429
-0.858101
-0.854248
-0.850259
-0.84624
-0.84202
-0.837483
-0.832677
-0.827682
-0.822569
-0.817428
-0.812338
-0.807345
-0.802547
-0.798033
-0.793956
-0.790508
-0.787968
-0.786641
-0.786788
-0.788554
-0.792078
-0.797188
-0.803538
-0.810657
-0.818003
-0.825183
-0.831772
-0.837428
-0.841995
-0.845599
-0.848119
-0.849434
-0.0108696
-0.266546
-0.691497
-0.82753
-0.862418
-0.872677
-0.875109
-0.874473
-0.87289
-0.871218
-0.869741
-0.868555
-0.867662
-0.86703
-0.866612
-0.866349
-0.866217
-0.86622
-0.866346
-0.866565
-0.866835
-0.867093
-0.867265
-0.867255
-0.866946
-0.866218
-0.86493
-0.862954
-0.860184
-0.856631
-0.85266
-0.848694
-0.844591
-0.840095
-0.835232
-0.830064
-0.82466
-0.819103
-0.813481
-0.807892
-0.802435
-0.797172
-0.792283
-0.787966
-0.784436
-0.782046
-0.781049
-0.781672
-0.784088
-0.788251
-0.793918
-0.800613
-0.807773
-0.81501
-0.82176
-0.827702
-0.832571
-0.836191
-0.838598
-0.839851
-0.0108552
-0.266307
-0.69132
-0.827465
-0.862383
-0.872647
-0.875072
-0.874422
-0.872821
-0.871126
-0.86962
-0.868401
-0.867468
-0.866789
-0.866321
-0.866005
-0.865814
-0.865759
-0.865827
-0.865996
-0.866233
-0.86649
-0.866719
-0.866846
-0.866756
-0.866342
-0.865474
-0.864018
-0.861851
-0.858875
-0.855261
-0.85137
-0.847367
-0.843086
-0.838355
-0.8332
-0.82768
-0.821872
-0.815861
-0.809728
-0.803619
-0.797614
-0.79187
-0.786586
-0.782021
-0.778437
-0.77615
-0.775432
-0.776473
-0.779349
-0.783956
-0.789867
-0.796534
-0.8035
-0.810216
-0.8163
-0.821353
-0.825245
-0.827868
-0.829212
-0.0108285
-0.265861
-0.690995
-0.827353
-0.862334
-0.872614
-0.87504
-0.874379
-0.872758
-0.871036
-0.869496
-0.868235
-0.867256
-0.866527
-0.866003
-0.865632
-0.865377
-0.865248
-0.865243
-0.86535
-0.865543
-0.865789
-0.866036
-0.866241
-0.866308
-0.866163
-0.865672
-0.86471
-0.863144
-0.860858
-0.857795
-0.854181
-0.85035
-0.84633
-0.841899
-0.83695
-0.831515
-0.825647
-0.819417
-0.812915
-0.806262
-0.799561
-0.792982
-0.786708
-0.781
-0.776123
-0.772343
-0.77008
-0.769503
-0.770812
-0.77392
-0.778606
-0.784376
-0.790719
-0.797112
-0.803024
-0.808146
-0.812142
-0.814848
-0.816307
-0.0107889
-0.265199
-0.690511
-0.827187
-0.862265
-0.872575
-0.875006
-0.874337
-0.872696
-0.870945
-0.869372
-0.868073
-0.867047
-0.866265
-0.865684
-0.865254
-0.864931
-0.86473
-0.864647
-0.864678
-0.864804
-0.864997
-0.86523
-0.865459
-0.865633
-0.86566
-0.865465
-0.864941
-0.863942
-0.862361
-0.860069
-0.857039
-0.853488
-0.849746
-0.84571
-0.841135
-0.835973
-0.830252
-0.824016
-0.817349
-0.810326
-0.803079
-0.795736
-0.78849
-0.781618
-0.775384
-0.770032
-0.765966
-0.76352
-0.762889
-0.764071
-0.767049
-0.771403
-0.776701
-0.782329
-0.787776
-0.792616
-0.796495
-0.799193
-0.800689
-0.0107356
-0.264306
-0.689854
-0.826963
-0.862174
-0.872527
-0.874971
-0.874295
-0.872634
-0.870855
-0.869244
-0.867899
-0.866823
-0.865987
-0.865348
-0.864859
-0.864466
-0.864187
-0.864022
-0.86397
-0.86402
-0.864153
-0.864351
-0.864586
-0.864812
-0.864973
-0.865016
-0.864835
-0.864326
-0.863378
-0.861866
-0.859684
-0.856755
-0.853309
-0.849643
-0.845572
-0.840848
-0.83546
-0.829433
-0.822806
-0.815649
-0.808037
-0.800114