/*--------------------------------*- C++ -*----------------------------------*\
| =========                 |                                                 |
| \\      /  F ield         | OpenFOAM: The Open Source CFD Toolbox           |
|  \\    /   O peration     | Version:  2212                                  |
|   \\  /    A nd           | Website:  www.openfoam.com                      |
|    \\/     M anipulation  |                                                 |
\*---------------------------------------------------------------------------*/
FoamFile
{
    version     2.0;
    format      ascii;
    arch        "LSB;label=32;scalar=64";
    class       volScalarField;
    location    "2";
    object      k;
}
// * * * * * * * * * * * * * * * * * * * * * * * * * * * * * * * * * * * * * //

dimensions      [0 2 -2 0 0 0 0];

internalField   nonuniform List<scalar> 
14751
(
7.54214e-08
7.48201e-08
7.48818e-08
7.41172e-08
7.35394e-08
7.2511e-08
7.13273e-08
6.99739e-08
6.84281e-08
6.67561e-08
6.49746e-08
6.31118e-08
6.11838e-08
5.92385e-08
5.72872e-08
5.53581e-08
5.34692e-08
5.16251e-08
4.98489e-08
4.81438e-08
4.65281e-08
4.49965e-08
4.35531e-08
4.22008e-08
4.09438e-08
3.97738e-08
3.8691e-08
3.76925e-08
3.67753e-08
3.594e-08
3.51831e-08
3.45015e-08
3.38924e-08
3.33526e-08
3.28809e-08
3.2472e-08
3.21224e-08
3.18332e-08
3.16023e-08
3.14254e-08
3.12987e-08
3.1226e-08
3.12044e-08
3.12338e-08
3.13137e-08
3.14378e-08
3.16053e-08
3.18139e-08
3.20635e-08
3.23556e-08
3.26896e-08
3.30657e-08
3.34839e-08
3.39414e-08
3.44385e-08
3.49734e-08
3.55459e-08
3.61553e-08
3.67968e-08
3.74744e-08
3.81909e-08
3.89386e-08
3.97184e-08
4.05239e-08
4.13521e-08
4.22068e-08
4.3086e-08
4.39866e-08
4.49052e-08
4.58443e-08
4.6801e-08
4.7775e-08
4.87655e-08
4.97707e-08
5.07913e-08
5.1827e-08
5.2876e-08
5.39406e-08
5.50188e-08
5.61156e-08
5.723e-08
5.83563e-08
5.9506e-08
6.06661e-08
6.18437e-08
6.30361e-08
6.4239e-08
6.54451e-08
6.66483e-08
6.78457e-08
6.90169e-08
7.0141e-08
7.1237e-08
7.22234e-08
7.31217e-08
7.39201e-08
7.44362e-08
7.46236e-08
7.53521e-08
5.1178e-08
5.04828e-08
5.02463e-08
4.9817e-08
4.94445e-08
4.90218e-08
4.85342e-08
4.80252e-08
4.74709e-08
4.68969e-08
4.63e-08
4.56928e-08
4.50747e-08
4.44577e-08
4.38512e-08
4.32526e-08
4.26798e-08
4.2118e-08
4.15814e-08
4.1067e-08
4.05871e-08
4.01398e-08
3.97273e-08
3.93497e-08
3.90119e-08
3.87079e-08
3.84366e-08
3.81978e-08
3.79895e-08
3.78144e-08
3.76725e-08
3.75623e-08
3.74822e-08
3.74317e-08
3.74115e-08
3.74185e-08
3.7448e-08
3.75058e-08
3.75883e-08
3.76936e-08
3.78199e-08
3.79696e-08
3.8144e-08
3.83406e-08
3.85603e-08
3.87976e-08
3.90492e-08
3.93112e-08
3.95784e-08
3.98509e-08
4.01368e-08
4.04362e-08
4.07491e-08
4.10732e-08
4.14073e-08
4.17506e-08
4.21017e-08
4.24601e-08
4.2824e-08
4.31937e-08
4.35724e-08
4.39555e-08
4.43403e-08
4.47222e-08
4.50982e-08
4.54717e-08
4.58417e-08
4.62066e-08
4.65641e-08
4.69161e-08
4.72622e-08
4.76016e-08
4.79342e-08
4.82588e-08
4.85758e-08
4.88846e-08
4.91806e-08
4.94639e-08
4.97418e-08
5.00056e-08
5.0263e-08
5.05021e-08
5.07325e-08
5.0947e-08
5.11475e-08
5.13357e-08
5.15151e-08
5.16773e-08
5.18241e-08
5.19514e-08
5.20643e-08
5.2144e-08
5.21957e-08
5.22119e-08
5.21485e-08
5.2057e-08
5.18186e-08
5.144e-08
5.11136e-08
2.96744e-07
2.92711e-07
2.91656e-07
2.90645e-07
2.90182e-07
2.89945e-07
2.89516e-07
2.89142e-07
2.88645e-07
2.88124e-07
2.87524e-07
2.86893e-07
2.86213e-07
2.85499e-07
2.84795e-07
2.84058e-07
2.83389e-07
2.82679e-07
2.82008e-07
2.81351e-07
2.80781e-07
2.80296e-07
2.79911e-07
2.79623e-07
2.79464e-07
2.7941e-07
2.7946e-07
2.79618e-07
2.79877e-07
2.80254e-07
2.8076e-07
2.81386e-07
2.82128e-07
2.82987e-07
2.83975e-07
2.85076e-07
2.86262e-07
2.87576e-07
2.88995e-07
2.90511e-07
2.92125e-07
2.93825e-07
2.95612e-07
2.97493e-07
2.99475e-07
3.01526e-07
3.03618e-07
3.0572e-07
3.07787e-07
3.09816e-07
3.11877e-07
3.1397e-07
3.16094e-07
3.1823e-07
3.2037e-07
3.22505e-07
3.24621e-07
3.26713e-07
3.28769e-07
3.30776e-07
3.32753e-07
3.3467e-07
3.36503e-07
3.38231e-07
3.39827e-07
3.41302e-07
3.42648e-07
3.43856e-07
3.44905e-07
3.45802e-07
3.46544e-07
3.47122e-07
3.47533e-07
3.47769e-07
3.47831e-07
3.47715e-07
3.47384e-07
3.46835e-07
3.46134e-07
3.45207e-07
3.44121e-07
3.42788e-07
3.41282e-07
3.3957e-07
3.37671e-07
3.35605e-07
3.33419e-07
3.31067e-07
3.28588e-07
3.2597e-07
3.23285e-07
3.20417e-07
3.1743e-07
3.14403e-07
3.11044e-07
3.07821e-07
3.04103e-07
3.0018e-07
2.96642e-07
1.03207e-06
1.02041e-06
1.01899e-06
1.01913e-06
1.02227e-06
1.02686e-06
1.03092e-06
1.03532e-06
1.03951e-06
1.04377e-06
1.04787e-06
1.05191e-06
1.05586e-06
1.05968e-06
1.06346e-06
1.06706e-06
1.07074e-06
1.07418e-06
1.07757e-06
1.08086e-06
1.08424e-06
1.08773e-06
1.09136e-06
1.09514e-06
1.09913e-06
1.1033e-06
1.10764e-06
1.11218e-06
1.1169e-06
1.12185e-06
1.12707e-06
1.13255e-06
1.13825e-06
1.14421e-06
1.15046e-06
1.15696e-06
1.16362e-06
1.17061e-06
1.17783e-06
1.18515e-06
1.19252e-06
1.20008e-06
1.20783e-06
1.21578e-06
1.22393e-06
1.2322e-06
1.24049e-06
1.24866e-06
1.25655e-06
1.26411e-06
1.27163e-06
1.27911e-06
1.28654e-06
1.29386e-06
1.30103e-06
1.308e-06
1.31473e-06
1.3212e-06
1.32734e-06
1.3331e-06
1.33852e-06
1.3435e-06
1.34796e-06
1.35185e-06
1.35507e-06
1.35762e-06
1.35948e-06
1.36061e-06
1.36095e-06
1.36049e-06
1.35924e-06
1.35715e-06
1.35423e-06
1.35043e-06
1.34577e-06
1.34026e-06
1.33376e-06
1.32624e-06
1.31799e-06
1.30873e-06
1.29874e-06
1.2877e-06
1.27592e-06
1.26331e-06
1.24996e-06
1.23595e-06
1.22134e-06
1.20619e-06
1.19068e-06
1.17481e-06
1.15881e-06
1.14244e-06
1.12593e-06
1.10964e-06
1.09298e-06
1.07728e-06
1.06116e-06
1.04581e-06
1.03307e-06
2.24305e-06
2.22396e-06
2.22324e-06
2.22735e-06
2.23849e-06
2.25352e-06
2.26836e-06
2.28455e-06
2.30059e-06
2.31607e-06
2.33148e-06
2.34689e-06
2.3625e-06
2.378e-06
2.39345e-06
2.40867e-06
2.42399e-06
2.43882e-06
2.45345e-06
2.46777e-06
2.48202e-06
2.49628e-06
2.5106e-06
2.52496e-06
2.53945e-06
2.55402e-06
2.56868e-06
2.58344e-06
2.5983e-06
2.61331e-06
2.62854e-06
2.64397e-06
2.65953e-06
2.67523e-06
2.69125e-06
2.70743e-06
2.72356e-06
2.73949e-06
2.75539e-06
2.77133e-06
2.78724e-06
2.80321e-06
2.81925e-06
2.83533e-06
2.85147e-06
2.86753e-06
2.88333e-06
2.89867e-06
2.91317e-06
2.92657e-06
2.93961e-06
2.95227e-06
2.96454e-06
2.97631e-06
2.98751e-06
2.99808e-06
3.00793e-06
3.01702e-06
3.02524e-06
3.03246e-06
3.03878e-06
3.04403e-06
3.04808e-06
3.05089e-06
3.05229e-06
3.05227e-06
3.05079e-06
3.0478e-06
3.0432e-06
3.03698e-06
3.02913e-06
3.01962e-06
3.00842e-06
2.99546e-06
2.98081e-06
2.96455e-06
2.94629e-06
2.92588e-06
2.90328e-06
2.87867e-06
2.85251e-06
2.82446e-06
2.79492e-06
2.76383e-06
2.73139e-06
2.69776e-06
2.6631e-06
2.62751e-06
2.59129e-06
2.55454e-06
2.51763e-06
2.48026e-06
2.44295e-06
2.40634e-06
2.36988e-06
2.33573e-06
2.30217e-06
2.2715e-06
2.24749e-06
3.51118e-06
3.48928e-06
3.48899e-06
3.4962e-06
3.51316e-06
3.53591e-06
3.5592e-06
3.58473e-06
3.61057e-06
3.63646e-06
3.6625e-06
3.68861e-06
3.71418e-06
3.7397e-06
3.76523e-06
3.79066e-06
3.81628e-06
3.84139e-06
3.86619e-06
3.89054e-06
3.91464e-06
3.93858e-06
3.96245e-06
3.98624e-06
4.00998e-06
4.03365e-06
4.05724e-06
4.08073e-06
4.10411e-06
4.12742e-06
4.15077e-06
4.17413e-06
4.19734e-06
4.22031e-06
4.24286e-06
4.26511e-06
4.28704e-06
4.30864e-06
4.33001e-06
4.35115e-06
4.37202e-06
4.39263e-06
4.41299e-06
4.43304e-06
4.45278e-06
4.47209e-06
4.49078e-06
4.50864e-06
4.52517e-06
4.53982e-06
4.55368e-06
4.56678e-06
4.57907e-06
4.59047e-06
4.6009e-06
4.61031e-06
4.6186e-06
4.62574e-06
4.63161e-06
4.6361e-06
4.6393e-06
4.64106e-06
4.64126e-06
4.63987e-06
4.63676e-06
4.63191e-06
4.62529e-06
4.61687e-06
4.60654e-06
4.59432e-06
4.58021e-06
4.56419e-06
4.54626e-06
4.52625e-06
4.50365e-06
4.47848e-06
4.45101e-06
4.42117e-06
4.38907e-06
4.35475e-06
4.31857e-06
4.28023e-06
4.24012e-06
4.19822e-06
4.15472e-06
4.10981e-06
4.06369e-06
4.01646e-06
3.96847e-06
3.91985e-06
3.87098e-06
3.82165e-06
3.77243e-06
3.72411e-06
3.67638e-06
3.63154e-06
3.58822e-06
3.54907e-06
3.51953e-06
4.53406e-06
4.5135e-06
4.51377e-06
4.52273e-06
4.54224e-06
4.56825e-06
4.59562e-06
4.62571e-06
4.65662e-06
4.68806e-06
4.72001e-06
4.75233e-06
4.7846e-06
4.81696e-06
4.84938e-06
4.88152e-06
4.91338e-06
4.94486e-06
4.97601e-06
5.00669e-06
5.03698e-06
5.06692e-06
5.09669e-06
5.12628e-06
5.15569e-06
5.18488e-06
5.21382e-06
5.24247e-06
5.2708e-06
5.29876e-06
5.32624e-06
5.35322e-06
5.37973e-06
5.40572e-06
5.43111e-06
5.45596e-06
5.48021e-06
5.50387e-06
5.52698e-06
5.54955e-06
5.57149e-06
5.59282e-06
5.61349e-06
5.63346e-06
5.6527e-06
5.6711e-06
5.6885e-06
5.70476e-06
5.71971e-06
5.73331e-06
5.74584e-06
5.75727e-06
5.76758e-06
5.7767e-06
5.78456e-06
5.79112e-06
5.79633e-06
5.80013e-06
5.80245e-06
5.80322e-06
5.8025e-06
5.80018e-06
5.79617e-06
5.79049e-06
5.78303e-06
5.77379e-06
5.76276e-06
5.74992e-06
5.7352e-06
5.71863e-06
5.70022e-06
5.67996e-06
5.65729e-06
5.63206e-06
5.60451e-06
5.5747e-06
5.54274e-06
5.50863e-06
5.47246e-06
5.43424e-06
5.39425e-06
5.35227e-06
5.3086e-06
5.26324e-06
5.21637e-06
5.16814e-06
5.11874e-06
5.06827e-06
5.01705e-06
4.96522e-06
4.91311e-06
4.86058e-06
4.80817e-06
4.75667e-06
4.70596e-06
4.65823e-06
4.61279e-06
4.57334e-06
4.54435e-06
5.29534e-06
5.2771e-06
5.27761e-06
5.28718e-06
5.307e-06
5.33366e-06
5.36234e-06
5.3941e-06
5.42711e-06
5.46102e-06
5.49583e-06
5.53135e-06
5.56722e-06
5.6034e-06
5.6398e-06
5.67607e-06
5.7123e-06
5.74815e-06
5.78367e-06
5.81864e-06
5.85306e-06
5.88689e-06
5.92036e-06
5.95353e-06
5.98636e-06
6.0188e-06
6.05079e-06
6.08228e-06
6.11322e-06
6.14353e-06
6.17316e-06
6.20207e-06
6.23025e-06
6.25765e-06
6.28422e-06
6.30998e-06
6.33486e-06
6.35886e-06
6.382e-06
6.40424e-06
6.42553e-06
6.44585e-06
6.46515e-06
6.48337e-06
6.50047e-06
6.51637e-06
6.53093e-06
6.54406e-06
6.55568e-06
6.56582e-06
6.57463e-06
6.58209e-06
6.58819e-06
6.59289e-06
6.59615e-06
6.59795e-06
6.59826e-06
6.59707e-06
6.59433e-06
6.59002e-06
6.5842e-06
6.57679e-06
6.56776e-06
6.55713e-06
6.54488e-06
6.531e-06
6.5155e-06
6.4984e-06
6.47964e-06
6.45924e-06
6.43721e-06
6.41293e-06
6.38659e-06
6.3583e-06
6.32818e-06
6.2963e-06
6.26272e-06
6.22746e-06
6.1906e-06
6.15216e-06
6.11233e-06
6.07097e-06
6.0283e-06
5.98433e-06
5.9392e-06
5.89304e-06
5.84596e-06
5.79806e-06
5.74959e-06
5.70068e-06
5.65158e-06
5.60218e-06
5.55292e-06
5.50445e-06
5.45681e-06
5.41186e-06
5.36934e-06
5.33278e-06
5.30602e-06
5.84025e-06
5.82587e-06
5.82789e-06
5.83885e-06
5.85922e-06
5.88644e-06
5.91622e-06
5.94926e-06
5.98391e-06
6.01971e-06
6.05666e-06
6.09457e-06
6.13305e-06
6.17199e-06
6.21124e-06
6.25047e-06
6.28971e-06
6.32858e-06
6.36709e-06
6.405e-06
6.44224e-06
6.47858e-06
6.51433e-06
6.54959e-06
6.58432e-06
6.61843e-06
6.65186e-06
6.68452e-06
6.71637e-06
6.74733e-06
6.77733e-06
6.80634e-06
6.83432e-06
6.86122e-06
6.887e-06
6.91165e-06
6.93511e-06
6.95737e-06
6.97842e-06
6.99823e-06
7.01675e-06
7.03394e-06
7.04975e-06
7.06415e-06
7.07709e-06
7.08849e-06
7.09828e-06
7.10642e-06
7.11288e-06
7.11774e-06
7.12109e-06
7.12293e-06
7.12326e-06
7.12208e-06
7.11939e-06
7.11518e-06
7.10948e-06
7.10228e-06
7.09361e-06
7.08347e-06
7.07191e-06
7.05894e-06
7.04455e-06
7.02879e-06
7.01167e-06
6.9932e-06
6.97342e-06
6.95234e-06
6.92993e-06
6.90616e-06
6.88068e-06
6.85359e-06
6.8251e-06
6.7953e-06
6.76429e-06
6.73211e-06
6.69884e-06
6.66447e-06
6.62909e-06
6.5927e-06
6.55546e-06
6.51729e-06
6.47834e-06
6.43862e-06
6.39822e-06
6.35722e-06
6.31569e-06
6.27369e-06
6.2314e-06
6.1889e-06
6.14636e-06
6.1037e-06
6.06119e-06
6.01936e-06
5.97827e-06
5.93944e-06
5.90295e-06
5.87184e-06
5.84933e-06
6.22592e-06
6.21667e-06
6.2216e-06
6.23518e-06
6.25709e-06
6.28563e-06
6.31703e-06
6.35173e-06
6.38821e-06
6.42591e-06
6.46485e-06
6.5048e-06
6.54538e-06
6.58641e-06
6.62771e-06
6.66894e-06
6.7101e-06
6.7508e-06
6.79103e-06
6.83057e-06
6.86929e-06
6.90685e-06
6.94351e-06
6.97943e-06
7.01456e-06
7.04879e-06
7.08205e-06
7.11425e-06
7.14533e-06
7.17521e-06
7.20383e-06
7.23114e-06
7.2571e-06
7.28167e-06
7.30481e-06
7.3265e-06
7.34668e-06
7.36534e-06
7.38247e-06
7.39804e-06
7.41199e-06
7.42432e-06
7.43498e-06
7.44394e-06
7.45117e-06
7.45665e-06
7.46035e-06
7.46227e-06
7.46244e-06
7.46096e-06
7.45789e-06
7.45324e-06
7.44706e-06
7.43937e-06
7.4302e-06
7.41959e-06
7.40757e-06
7.39421e-06
7.37954e-06
7.36361e-06
7.34648e-06
7.3282e-06
7.3088e-06
7.28833e-06
7.26683e-06
7.24434e-06
7.2209e-06
7.19652e-06
7.17117e-06
7.1447e-06
7.11711e-06
7.08862e-06
7.05938e-06
7.0295e-06
6.99904e-06
6.96808e-06
6.93663e-06
6.90473e-06
6.87242e-06
6.8397e-06
6.80669e-06
6.77334e-06
6.73976e-06
6.70596e-06
6.67199e-06
6.63787e-06
6.60366e-06
6.56936e-06
6.53507e-06
6.50078e-06
6.4666e-06
6.43245e-06
6.3985e-06
6.3651e-06
6.33233e-06
6.3014e-06
6.27256e-06
6.24838e-06
6.23158e-06
6.50113e-06
6.49778e-06
6.50661e-06
6.52365e-06
6.54787e-06
6.57833e-06
6.61169e-06
6.6482e-06
6.68658e-06
6.72627e-06
6.76706e-06
6.80868e-06
6.85077e-06
6.89311e-06
6.9355e-06
6.97764e-06
7.01944e-06
7.06058e-06
7.10102e-06
7.14054e-06
7.17906e-06
7.21636e-06
7.25246e-06
7.28753e-06
7.32149e-06
7.35425e-06
7.38571e-06
7.4158e-06
7.44445e-06
7.47158e-06
7.49714e-06
7.52108e-06
7.54337e-06
7.56397e-06
7.58284e-06
7.59997e-06
7.61531e-06
7.62887e-06
7.64061e-06
7.65054e-06
7.65861e-06
7.66484e-06
7.66919e-06
7.67167e-06
7.67229e-06
7.67106e-06
7.66798e-06
7.66312e-06
7.65655e-06
7.64834e-06
7.63856e-06
7.62728e-06
7.61455e-06
7.60044e-06
7.585e-06
7.5683e-06
7.55041e-06
7.53141e-06
7.51136e-06
7.49036e-06
7.46848e-06
7.44578e-06
7.42233e-06
7.39818e-06
7.37339e-06
7.348e-06
7.32206e-06
7.29558e-06
7.26854e-06
7.24091e-06
7.21288e-06
7.18462e-06
7.15624e-06
7.12782e-06
7.09945e-06
7.07118e-06
7.04303e-06
7.01502e-06
6.98716e-06
6.95944e-06
6.9319e-06
6.90455e-06
6.87746e-06
6.85061e-06
6.82402e-06
6.79769e-06
6.77161e-06
6.74578e-06
6.72019e-06
6.69481e-06
6.66966e-06
6.64466e-06
6.61989e-06
6.59558e-06
6.5718e-06
6.54948e-06
6.52896e-06
6.51234e-06
6.50204e-06
6.70102e-06
6.70369e-06
6.71669e-06
6.73738e-06
6.76459e-06
6.79736e-06
6.8328e-06
6.87096e-06
6.91073e-06
6.95156e-06
6.99325e-06
7.03552e-06
7.078e-06
7.12049e-06
7.16276e-06
7.20454e-06
7.24571e-06
7.28597e-06
7.32529e-06
7.36342e-06
7.40018e-06
7.43549e-06
7.46949e-06
7.50215e-06
7.53339e-06
7.5631e-06
7.5912e-06
7.61762e-06
7.6423e-06
7.66517e-06
7.68618e-06
7.70531e-06
7.72252e-06
7.73778e-06
7.75108e-06
7.76241e-06
7.77174e-06
7.7791e-06
7.78446e-06
7.78783e-06
7.78923e-06
7.78865e-06
7.78613e-06
7.7817e-06
7.77539e-06
7.76726e-06
7.75736e-06
7.74578e-06
7.73261e-06
7.71793e-06
7.70184e-06
7.68442e-06
7.66576e-06
7.64596e-06
7.62509e-06
7.60325e-06
7.58053e-06
7.55701e-06
7.5328e-06
7.508e-06
7.48269e-06
7.45697e-06
7.43091e-06
7.40458e-06
7.37801e-06
7.35127e-06
7.32439e-06
7.2974e-06
7.27035e-06
7.24341e-06
7.21673e-06
7.19041e-06
7.16452e-06
7.13911e-06
7.11427e-06
7.09006e-06
7.06648e-06
7.04354e-06
7.02121e-06
6.99949e-06
6.97834e-06
6.95776e-06
6.93779e-06
6.91843e-06
6.89963e-06
6.88139e-06
6.86366e-06
6.8464e-06
6.82957e-06
6.8131e-06
6.79693e-06
6.78101e-06
6.76532e-06
6.75004e-06
6.7352e-06
6.72152e-06
6.7093e-06
6.70029e-06
6.69661e-06
6.84825e-06
6.85698e-06
6.87427e-06
6.89837e-06
6.92791e-06
6.96227e-06
6.99895e-06
7.03788e-06
7.07809e-06
7.11908e-06
7.1606e-06
7.2024e-06
7.24411e-06
7.28556e-06
7.32647e-06
7.36665e-06
7.40595e-06
7.44406e-06
7.48085e-06
7.51603e-06
7.54967e-06
7.58168e-06
7.61209e-06
7.64085e-06
7.66788e-06
7.69309e-06
7.71643e-06
7.73781e-06
7.7572e-06
7.77455e-06
7.78983e-06
7.803e-06
7.81407e-06
7.82302e-06
7.82986e-06
7.83458e-06
7.83721e-06
7.83777e-06
7.83627e-06
7.83274e-06
7.82722e-06
7.81974e-06
7.81038e-06
7.79918e-06
7.78623e-06
7.77161e-06
7.75542e-06
7.73776e-06
7.71874e-06
7.69845e-06
7.677e-06
7.65451e-06
7.63108e-06
7.60682e-06
7.58187e-06
7.55631e-06
7.53025e-06
7.50379e-06
7.47702e-06
7.45006e-06
7.423e-06
7.39595e-06
7.36899e-06
7.34219e-06
7.3156e-06
7.28925e-06
7.26317e-06
7.23744e-06
7.21224e-06
7.18774e-06
7.16402e-06
7.14116e-06
7.1192e-06
7.09815e-06
7.07804e-06
7.05894e-06
7.04086e-06
7.02377e-06
7.00764e-06
6.99244e-06
6.9781e-06
6.9646e-06
6.95194e-06
6.94011e-06
6.92905e-06
6.91872e-06
6.90906e-06
6.90001e-06
6.8915e-06
6.88341e-06
6.87567e-06
6.86823e-06
6.86105e-06
6.85423e-06
6.84778e-06
6.84223e-06
6.83784e-06
6.83596e-06
6.83859e-06
6.95711e-06
6.97089e-06
6.99157e-06
7.01815e-06
7.0492e-06
7.08426e-06
7.12124e-06
7.15994e-06
7.19956e-06
7.23962e-06
7.27985e-06
7.32003e-06
7.35979e-06
7.399e-06
7.4374e-06
7.47475e-06
7.51083e-06
7.54528e-06
7.57813e-06
7.60919e-06
7.63839e-06
7.66571e-06
7.69117e-06
7.71471e-06
7.73627e-06
7.75578e-06
7.7732e-06
7.78848e-06
7.80159e-06
7.81251e-06
7.82123e-06
7.82774e-06
7.83206e-06
7.83418e-06
7.83414e-06
7.83197e-06
7.82772e-06
7.82142e-06
7.81313e-06
7.80291e-06
7.79082e-06
7.77693e-06
7.76132e-06
7.74408e-06
7.72533e-06
7.70517e-06
7.68373e-06
7.66113e-06
7.6375e-06
7.61293e-06
7.58756e-06
7.5615e-06
7.53486e-06
7.50779e-06
7.48041e-06
7.45285e-06
7.42521e-06
7.39759e-06
7.37008e-06
7.34277e-06
7.31576e-06
7.28916e-06
7.26306e-06
7.23753e-06
7.21259e-06
7.1883e-06
7.16467e-06
7.14191e-06
7.12011e-06
7.09942e-06
7.07991e-06
7.06161e-06
7.04453e-06
7.02867e-06
7.01401e-06
7.0006e-06
6.98843e-06
6.97747e-06
6.96767e-06
6.95899e-06
6.95132e-06
6.94457e-06
6.93883e-06
6.93406e-06
6.93019e-06
6.92717e-06
6.92492e-06
6.92336e-06
6.92242e-06
6.92198e-06
6.92198e-06
6.92231e-06
6.9229e-06
6.92381e-06
6.92502e-06
6.92691e-06
6.9297e-06
6.93447e-06
6.94291e-06
7.03488e-06
7.05271e-06
7.07586e-06
7.10397e-06
7.13558e-06
7.17039e-06
7.20663e-06
7.24407e-06
7.282e-06
7.32003e-06
7.35782e-06
7.39525e-06
7.43194e-06
7.46775e-06
7.5023e-06
7.53534e-06
7.56679e-06
7.59639e-06
7.62404e-06
7.64963e-06
7.67314e-06
7.69459e-06
7.71398e-06
7.73127e-06
7.7464e-06
7.75933e-06
7.77005e-06
7.77853e-06
7.78478e-06
7.78879e-06
7.79059e-06
7.79019e-06
7.78762e-06
7.78291e-06
7.77612e-06
7.7673e-06
7.75652e-06
7.74386e-06
7.7294e-06
7.71324e-06
7.69545e-06
7.67614e-06
7.6554e-06
7.63335e-06
7.61011e-06
7.58581e-06
7.56059e-06
7.53459e-06
7.50795e-06
7.48078e-06
7.45322e-06
7.42537e-06
7.39734e-06
7.36927e-06
7.3413e-06
7.31355e-06
7.28614e-06
7.25914e-06
7.23265e-06
7.20674e-06
7.18149e-06
7.15697e-06
7.13329e-06
7.11049e-06
7.08862e-06
7.0677e-06
7.04782e-06
7.02916e-06
7.01177e-06
6.99574e-06
6.98111e-06
6.96787e-06
6.95603e-06
6.94554e-06
6.93627e-06
6.92839e-06
6.92188e-06
6.91671e-06
6.91282e-06
6.91016e-06
6.90864e-06
6.90824e-06
6.90894e-06
6.91069e-06
6.91342e-06
6.91705e-06
6.9215e-06
6.92669e-06
6.93251e-06
6.93886e-06
6.94566e-06
6.95282e-06
6.96024e-06
6.96792e-06
6.97582e-06
6.98418e-06
6.99318e-06
7.00363e-06
7.01699e-06
7.0862e-06
7.10709e-06
7.13177e-06
7.16039e-06
7.19158e-06
7.22512e-06
7.25957e-06
7.29469e-06
7.32985e-06
7.36475e-06
7.39904e-06
7.43258e-06
7.46487e-06
7.4958e-06
7.52517e-06
7.55272e-06
7.57829e-06
7.60173e-06
7.62299e-06
7.64205e-06
7.65893e-06
7.67366e-06
7.68621e-06
7.69657e-06
7.7047e-06
7.7106e-06
7.71426e-06
7.71571e-06
7.71498e-06
7.71209e-06
7.7071e-06
7.70004e-06
7.69098e-06
7.67997e-06
7.66708e-06
7.65239e-06
7.63599e-06
7.61798e-06
7.59847e-06
7.57758e-06
7.55543e-06
7.53213e-06
7.50779e-06
7.48253e-06
7.45647e-06
7.42975e-06
7.4025e-06
7.37489e-06
7.34705e-06
7.3191e-06
7.29117e-06
7.26336e-06
7.23577e-06
7.20852e-06
7.18171e-06
7.15548e-06
7.12991e-06
7.10508e-06
7.08106e-06
7.05792e-06
7.0357e-06
7.01448e-06
6.99431e-06
6.97523e-06
6.95727e-06
6.94045e-06
6.92497e-06
6.91079e-06
6.89793e-06
6.88655e-06
6.87667e-06
6.8683e-06
6.8614e-06
6.85593e-06
6.85186e-06
6.84924e-06
6.84805e-06
6.84824e-06
6.84976e-06
6.85256e-06
6.85655e-06
6.86172e-06
6.86805e-06
6.87548e-06
6.88392e-06
6.89331e-06
6.90355e-06
6.91456e-06
6.92621e-06
6.93843e-06
6.95111e-06
6.96416e-06
6.97747e-06
6.99099e-06
7.00463e-06
7.01853e-06
7.03282e-06
7.04807e-06
7.06548e-06
7.11399e-06
7.13694e-06
7.1622e-06
7.19033e-06
7.22009e-06
7.25138e-06
7.283e-06
7.31477e-06
7.34614e-06
7.37682e-06
7.40628e-06
7.43448e-06
7.46113e-06
7.48602e-06
7.50896e-06
7.52978e-06
7.54839e-06
7.56474e-06
7.57884e-06
7.59073e-06
7.60043e-06
7.60796e-06
7.61333e-06
7.61654e-06
7.61758e-06
7.61648e-06
7.61325e-06
7.60795e-06
7.60063e-06
7.59137e-06
7.58024e-06
7.56732e-06
7.55267e-06
7.53638e-06
7.51854e-06
7.49924e-06
7.47859e-06
7.45669e-06
7.43367e-06
7.40967e-06
7.38482e-06
7.35924e-06
7.33305e-06
7.30637e-06
7.27932e-06
7.25203e-06
7.22461e-06
7.19721e-06
7.16996e-06
7.14296e-06
7.11633e-06
7.09016e-06
7.06454e-06
7.03955e-06
7.0153e-06
6.99186e-06
6.9693e-06
6.94769e-06
6.92706e-06
6.90746e-06
6.88889e-06
6.87131e-06
6.85491e-06
6.83973e-06
6.82578e-06
6.81311e-06
6.80189e-06
6.79208e-06
6.78369e-06
6.77683e-06
6.7715e-06
6.76768e-06
6.76534e-06
6.76445e-06
6.76499e-06
6.76701e-06
6.77046e-06
6.7753e-06
6.78149e-06
6.78897e-06
6.79769e-06
6.80763e-06
6.81875e-06
6.831e-06
6.84429e-06
6.85855e-06
6.87368e-06
6.88959e-06
6.90618e-06
6.92335e-06
6.941e-06
6.95903e-06
6.97731e-06
6.99574e-06
7.01423e-06
7.03279e-06
7.05149e-06
7.0707e-06
7.0913e-06
7.12016e-06
7.14421e-06
7.16911e-06
7.19577e-06
7.22315e-06
7.25122e-06
7.27908e-06
7.30648e-06
7.33278e-06
7.35784e-06
7.38132e-06
7.40306e-06
7.42285e-06
7.44059e-06
7.45614e-06
7.46948e-06
7.48055e-06
7.4894e-06
7.49605e-06
7.50057e-06
7.50299e-06
7.50336e-06
7.5017e-06
7.49804e-06
7.49241e-06
7.48486e-06
7.47544e-06
7.46422e-06
7.45127e-06
7.43669e-06
7.42059e-06
7.40304e-06
7.38416e-06
7.36404e-06
7.34277e-06
7.32047e-06
7.29724e-06
7.2732e-06
7.24846e-06
7.22316e-06
7.19742e-06
7.17136e-06
7.14509e-06
7.11872e-06
7.09237e-06
7.06614e-06
7.04014e-06
7.01448e-06
6.98926e-06
6.96455e-06
6.94045e-06
6.91703e-06
6.89434e-06
6.87241e-06
6.85122e-06
6.83098e-06
6.81176e-06
6.79359e-06
6.77651e-06
6.76053e-06
6.74567e-06
6.73191e-06
6.71939e-06
6.70813e-06
6.69813e-06
6.68953e-06
6.68235e-06
6.67658e-06
6.67226e-06
6.66945e-06
6.66815e-06
6.66832e-06
6.66996e-06
6.67303e-06
6.67754e-06
6.68351e-06
6.69088e-06
6.69963e-06
6.70972e-06
6.7211e-06
6.73374e-06
6.74761e-06
6.76267e-06
6.77887e-06
6.79613e-06
6.81437e-06
6.8335e-06
6.85344e-06
6.87406e-06
6.89529e-06
6.91702e-06
6.93913e-06
6.96149e-06
6.98397e-06
7.00644e-06
7.0288e-06
7.05107e-06
7.0734e-06
7.09635e-06
7.10607e-06
7.13029e-06
7.15396e-06
7.17825e-06
7.20237e-06
7.22632e-06
7.24923e-06
7.27097e-06
7.29113e-06
7.30954e-06
7.32595e-06
7.34029e-06
7.35247e-06
7.36247e-06
7.3703e-06
7.37596e-06
7.37948e-06
7.38095e-06
7.38038e-06
7.37786e-06
7.37345e-06
7.36723e-06
7.35923e-06
7.34952e-06
7.33816e-06
7.32523e-06
7.3108e-06
7.29495e-06
7.27777e-06
7.25937e-06
7.23985e-06
7.2193e-06
7.19784e-06
7.17557e-06
7.15258e-06
7.12898e-06
7.10489e-06
7.0804e-06
7.05564e-06
7.0307e-06
7.00568e-06
6.98067e-06
6.95578e-06
6.93108e-06
6.90667e-06
6.88261e-06
6.85891e-06
6.83567e-06
6.81305e-06
6.79112e-06
6.76996e-06
6.7496e-06
6.73008e-06
6.71143e-06
6.69364e-06
6.67689e-06
6.6612e-06
6.64661e-06
6.63313e-06
6.62076e-06
6.60953e-06
6.59944e-06
6.5906e-06
6.58301e-06
6.57666e-06
6.57174e-06
6.56819e-06
6.56602e-06
6.56528e-06
6.56598e-06
6.56812e-06
6.57169e-06
6.57667e-06
6.58305e-06
6.59083e-06
6.60001e-06
6.61055e-06
6.62244e-06
6.63563e-06
6.65011e-06
6.66583e-06
6.68278e-06
6.70092e-06
6.7202e-06
6.74055e-06
6.76189e-06
6.78415e-06
6.80724e-06
6.83103e-06
6.85544e-06
6.88037e-06
6.9057e-06
6.93129e-06
6.95696e-06
6.98255e-06
7.00788e-06
7.03289e-06
7.05751e-06
7.08197e-06
7.0729e-06
7.09645e-06
7.11808e-06
7.13916e-06
7.15902e-06
7.17771e-06
7.19471e-06
7.20987e-06
7.22299e-06
7.23401e-06
7.24283e-06
7.24948e-06
7.25396e-06
7.25633e-06
7.25667e-06
7.25507e-06
7.25156e-06
7.24627e-06
7.23925e-06
7.2306e-06
7.22037e-06
7.20866e-06
7.19553e-06
7.18107e-06
7.16535e-06
7.14847e-06
7.13052e-06
7.11159e-06
7.09177e-06
7.07118e-06
7.04988e-06
7.02799e-06
7.00558e-06
6.98275e-06
6.95959e-06
6.9362e-06
6.91264e-06
6.889e-06
6.86527e-06
6.8416e-06
6.81812e-06
6.79492e-06
6.77207e-06
6.74963e-06
6.72766e-06
6.7062e-06
6.68528e-06
6.66496e-06
6.6454e-06
6.62663e-06
6.6087e-06
6.59163e-06
6.57545e-06
6.56018e-06
6.54586e-06
6.53258e-06
6.52037e-06
6.50924e-06
6.4992e-06
6.49026e-06
6.48244e-06
6.47577e-06
6.47029e-06
6.46601e-06
6.46296e-06
6.46126e-06
6.46086e-06
6.46179e-06
6.46406e-06
6.46768e-06
6.47265e-06
6.47896e-06
6.48661e-06
6.49559e-06
6.5059e-06
6.51754e-06
6.53048e-06
6.54471e-06
6.5602e-06
6.57694e-06
6.59491e-06
6.6141e-06
6.63445e-06
6.65595e-06
6.67852e-06
6.70211e-06
6.72663e-06
6.75199e-06
6.77809e-06
6.80483e-06
6.8321e-06
6.85981e-06
6.88777e-06
6.91581e-06
6.9437e-06
6.97118e-06
6.9981e-06
7.02418e-06
7.04933e-06
7.02193e-06
7.04401e-06
7.06276e-06
7.07964e-06
7.0944e-06
7.10709e-06
7.11749e-06
7.12557e-06
7.13137e-06
7.13495e-06
7.13636e-06
7.13569e-06
7.13303e-06
7.12849e-06
7.12219e-06
7.11424e-06
7.10472e-06
7.09378e-06
7.08149e-06
7.06797e-06
7.05329e-06
7.03751e-06
7.02072e-06
7.00301e-06
6.98446e-06
6.96517e-06
6.9452e-06
6.92464e-06
6.90354e-06
6.88194e-06
6.86002e-06
6.83786e-06
6.81554e-06
6.79313e-06
6.77071e-06
6.74835e-06
6.72609e-06
6.70399e-06
6.68206e-06
6.66042e-06
6.63919e-06
6.61842e-06
6.59816e-06
6.57846e-06
6.55934e-06
6.54084e-06
6.52299e-06
6.50587e-06
6.48955e-06
6.47408e-06
6.45947e-06
6.44574e-06
6.43291e-06
6.42101e-06
6.41007e-06
6.40014e-06
6.39124e-06
6.38337e-06
6.37655e-06
6.37078e-06
6.36607e-06
6.36245e-06
6.35995e-06
6.35854e-06
6.35837e-06
6.3594e-06
6.36163e-06
6.36509e-06
6.36977e-06
6.37568e-06
6.38283e-06
6.39121e-06
6.40083e-06
6.41169e-06
6.42378e-06
6.43711e-06
6.45167e-06
6.46745e-06
6.48443e-06
6.50262e-06
6.522e-06
6.54257e-06
6.56429e-06
6.58715e-06
6.61109e-06
6.63607e-06
6.66199e-06
6.68879e-06
6.71634e-06
6.74457e-06
6.77336e-06
6.8026e-06
6.83213e-06
6.86171e-06
6.89108e-06
6.9199e-06
6.94791e-06
6.97464e-06
6.99967e-06
6.95472e-06
6.97446e-06
6.98955e-06
7.00163e-06
7.01076e-06
7.01715e-06
7.02089e-06
7.02208e-06
7.02097e-06
7.01772e-06
7.01247e-06
7.00537e-06
6.99659e-06
6.98627e-06
6.97451e-06
6.96148e-06
6.94725e-06
6.93199e-06
6.91575e-06
6.8986e-06
6.88061e-06
6.86192e-06
6.84263e-06
6.82281e-06
6.80254e-06
6.7819e-06
6.76097e-06
6.73979e-06
6.71841e-06
6.69688e-06
6.67536e-06
6.65391e-06
6.6326e-06
6.61147e-06
6.59059e-06
6.56998e-06
6.5497e-06
6.52976e-06
6.51022e-06
6.49115e-06
6.47264e-06
6.45471e-06
6.4374e-06
6.42074e-06
6.40473e-06
6.38942e-06
6.37483e-06
6.36101e-06
6.34802e-06
6.33587e-06
6.32457e-06
6.31413e-06
6.30457e-06
6.29591e-06
6.28818e-06
6.28139e-06
6.27556e-06
6.27069e-06
6.26678e-06
6.26383e-06
6.26187e-06
6.26091e-06
6.26095e-06
6.26199e-06
6.26416e-06
6.26739e-06
6.2717e-06
6.27708e-06
6.28356e-06
6.29113e-06
6.2998e-06
6.30958e-06
6.32047e-06
6.33248e-06
6.34562e-06
6.35989e-06
6.3753e-06
6.39184e-06
6.40953e-06
6.42835e-06
6.44832e-06
6.46945e-06
6.49171e-06
6.5151e-06
6.53958e-06
6.56509e-06
6.59159e-06
6.61897e-06
6.64715e-06
6.67604e-06
6.70552e-06
6.73549e-06
6.76576e-06
6.79607e-06
6.82613e-06
6.85549e-06
6.8838e-06
6.91038e-06
6.93452e-06
6.87332e-06
6.8901e-06
6.90108e-06
6.90814e-06
6.91167e-06
6.91206e-06
6.90965e-06
6.90468e-06
6.89753e-06
6.88844e-06
6.87761e-06
6.86522e-06
6.85142e-06
6.83631e-06
6.82012e-06
6.80302e-06
6.78511e-06
6.76655e-06
6.74738e-06
6.72769e-06
6.70754e-06
6.68709e-06
6.66642e-06
6.64559e-06
6.62467e-06
6.60373e-06
6.58282e-06
6.56198e-06
6.54126e-06
6.52073e-06
6.50047e-06
6.48055e-06
6.461e-06
6.44185e-06
6.42314e-06
6.40489e-06
6.38712e-06
6.36987e-06
6.35315e-06
6.33705e-06
6.32159e-06
6.30678e-06
6.29265e-06
6.27921e-06
6.26647e-06
6.25445e-06
6.24317e-06
6.23267e-06
6.22297e-06
6.21407e-06
6.20597e-06
6.19869e-06
6.19224e-06
6.18661e-06
6.18184e-06
6.17792e-06
6.17486e-06
6.17265e-06
6.1713e-06
6.1708e-06
6.17118e-06
6.17243e-06
6.17456e-06
6.17758e-06
6.18157e-06
6.18646e-06
6.19227e-06
6.19901e-06
6.20667e-06
6.21528e-06
6.22483e-06
6.23535e-06
6.24683e-06
6.25931e-06
6.27278e-06
6.28727e-06
6.30278e-06
6.31934e-06
6.33696e-06
6.35565e-06
6.37543e-06
6.39631e-06
6.41831e-06
6.44141e-06
6.4656e-06
6.49084e-06
6.51707e-06
6.54423e-06
6.57221e-06
6.60093e-06
6.63029e-06
6.66018e-06
6.6904e-06
6.72065e-06
6.75061e-06
6.77975e-06
6.8076e-06
6.8333e-06
6.85583e-06
6.78049e-06
6.79408e-06
6.80097e-06
6.80325e-06
6.80166e-06
6.79671e-06
6.78892e-06
6.77861e-06
6.76628e-06
6.75224e-06
6.73674e-06
6.71996e-06
6.70208e-06
6.68323e-06
6.66367e-06
6.64358e-06
6.62306e-06
6.60226e-06
6.58125e-06
6.56011e-06
6.53892e-06
6.5178e-06
6.4968e-06
6.476e-06
6.45542e-06
6.43514e-06
6.41518e-06
6.39558e-06
6.37637e-06
6.35761e-06
6.33936e-06
6.32165e-06
6.30448e-06
6.28787e-06
6.27185e-06
6.25642e-06
6.24159e-06
6.22738e-06
6.21381e-06
6.20092e-06
6.18871e-06
6.17718e-06
6.16635e-06
6.15621e-06
6.14677e-06
6.13805e-06
6.13004e-06
6.12277e-06
6.11623e-06
6.11043e-06
6.10537e-06
6.10104e-06
6.09745e-06
6.0946e-06
6.09249e-06
6.09112e-06
6.09048e-06
6.09058e-06
6.09141e-06
6.09297e-06
6.09526e-06
6.09828e-06
6.10204e-06
6.10657e-06
6.11186e-06
6.1179e-06
6.12467e-06
6.1322e-06
6.14048e-06
6.14953e-06
6.15937e-06
6.17e-06
6.18144e-06
6.19373e-06
6.20687e-06
6.22089e-06
6.23583e-06
6.2517e-06
6.26852e-06
6.28634e-06
6.30517e-06
6.32505e-06
6.346e-06
6.36803e-06
6.39114e-06
6.4153e-06
6.44047e-06
6.46658e-06
6.49356e-06
6.52132e-06
6.54976e-06
6.57876e-06
6.60814e-06
6.63757e-06
6.66666e-06
6.69484e-06
6.72153e-06
6.7457e-06
6.76608e-06
6.67935e-06
6.68973e-06
6.69275e-06
6.69075e-06
6.68463e-06
6.67506e-06
6.66268e-06
6.6479e-06
6.63131e-06
6.61328e-06
6.59406e-06
6.57389e-06
6.55295e-06
6.53144e-06
6.50961e-06
6.48762e-06
6.46559e-06
6.44367e-06
6.42192e-06
6.40042e-06
6.37925e-06
6.35848e-06
6.33816e-06
6.31833e-06
6.29901e-06
6.28025e-06
6.26207e-06
6.24448e-06
6.2275e-06
6.21118e-06
6.19553e-06
6.18056e-06
6.16626e-06
6.15264e-06
6.13969e-06
6.12741e-06
6.11581e-06
6.10489e-06
6.09465e-06
6.08509e-06
6.07623e-06
6.06803e-06
6.06051e-06
6.05366e-06
6.04747e-06
6.04194e-06
6.03708e-06
6.03287e-06
6.02932e-06
6.02641e-06
6.02415e-06
6.02252e-06
6.02151e-06
6.02113e-06
6.02137e-06
6.02221e-06
6.02366e-06
6.0257e-06
6.02833e-06
6.03154e-06
6.03534e-06
6.03972e-06
6.04467e-06
6.05024e-06
6.05637e-06
6.06305e-06
6.07029e-06
6.0781e-06
6.08648e-06
6.09544e-06
6.105e-06
6.11518e-06
6.12601e-06