/*--------------------------------*- C++ -*----------------------------------*\
| =========                 |                                                 |
| \\      /  F ield         | OpenFOAM: The Open Source CFD Toolbox           |
|  \\    /   O peration     | Version:  2212                                  |
|   \\  /    A nd           | Website:  www.openfoam.com                      |
|    \\/     M anipulation  |                                                 |
\*---------------------------------------------------------------------------*/
FoamFile
{
    version     2.0;
    format      ascii;
    arch        "LSB;label=32;scalar=64";
    class       volScalarField;
    location    "2";
    object      nut;
}
// * * * * * * * * * * * * * * * * * * * * * * * * * * * * * * * * * * * * * //

dimensions      [0 2 -1 0 0 0 0];

internalField   nonuniform List<scalar> 
14751
(
7.57384e-10
7.5132e-10
7.52012e-10
7.44392e-10
7.38631e-10
7.28337e-10
7.16484e-10
7.02909e-10
6.87382e-10
6.70586e-10
6.52689e-10
6.33928e-10
6.14463e-10
5.94843e-10
5.75188e-10
5.55776e-10
5.36788e-10
5.18251e-10
5.00397e-10
4.83284e-10
4.67093e-10
4.51743e-10
4.37279e-10
4.23755e-10
4.11212e-10
3.99528e-10
3.88701e-10
3.78698e-10
3.69491e-10
3.61107e-10
3.5351e-10
3.46669e-10
3.40555e-10
3.35138e-10
3.30406e-10
3.2629e-10
3.22755e-10
3.19828e-10
3.17487e-10
3.15668e-10
3.14329e-10
3.1354e-10
3.13277e-10
3.13546e-10
3.14341e-10
3.1558e-10
3.17254e-10
3.19341e-10
3.2184e-10
3.24765e-10
3.28111e-10
3.31886e-10
3.3609e-10
3.4069e-10
3.45687e-10
3.51064e-10
3.56817e-10
3.62943e-10
3.69391e-10
3.76224e-10
3.83473e-10
3.91053e-10
3.98967e-10
4.07112e-10
4.15461e-10
4.24076e-10
4.32937e-10
4.41999e-10
4.51227e-10
4.60661e-10
4.70273e-10
4.80057e-10
4.90007e-10
5.00104e-10
5.10357e-10
5.20761e-10
5.31297e-10
5.4199e-10
5.52821e-10
5.63837e-10
5.75031e-10
5.86344e-10
5.97892e-10
6.09534e-10
6.2134e-10
6.33294e-10
6.45351e-10
6.57422e-10
6.69443e-10
6.81383e-10
6.93044e-10
7.04287e-10
7.15299e-10
7.2521e-10
7.34236e-10
7.42266e-10
7.47469e-10
7.49378e-10
7.56733e-10
3.03604e-09
2.99542e-09
2.98521e-09
2.96541e-09
2.95062e-09
2.93351e-09
2.9128e-09
2.89097e-09
2.8663e-09
2.84032e-09
2.81277e-09
2.78416e-09
2.75442e-09
2.72445e-09
2.69482e-09
2.66536e-09
2.63713e-09
2.60917e-09
2.58237e-09
2.55664e-09
2.53276e-09
2.51053e-09
2.4901e-09
2.47159e-09
2.45536e-09
2.44086e-09
2.42802e-09
2.41683e-09
2.40718e-09
2.39934e-09
2.39337e-09
2.38915e-09
2.38663e-09
2.38576e-09
2.38663e-09
2.38895e-09
2.39245e-09
2.39758e-09
2.40413e-09
2.41186e-09
2.42064e-09
2.43083e-09
2.44254e-09
2.45564e-09
2.47019e-09
2.48575e-09
2.50211e-09
2.51901e-09
2.53613e-09
2.55345e-09
2.57151e-09
2.59035e-09
2.60997e-09
2.63017e-09
2.65087e-09
2.672e-09
2.69349e-09
2.71528e-09
2.73726e-09
2.75954e-09
2.78235e-09
2.80533e-09
2.82825e-09
2.85061e-09
2.8722e-09
2.89338e-09
2.91406e-09
2.93406e-09
2.9532e-09
2.97168e-09
2.98946e-09
3.00648e-09
3.02272e-09
3.03809e-09
3.05262e-09
3.06626e-09
3.07871e-09
3.08999e-09
3.10055e-09
3.10985e-09
3.11839e-09
3.12543e-09
3.13159e-09
3.13641e-09
3.14005e-09
3.14269e-09
3.14457e-09
3.14517e-09
3.14464e-09
3.14282e-09
3.14009e-09
3.13563e-09
3.12992e-09
3.1225e-09
3.11094e-09
3.09871e-09
3.07911e-09
3.05298e-09
3.03202e-09
5.13358e-08
5.06796e-08
5.06586e-08
5.07192e-08
5.09401e-08
5.12334e-08
5.15138e-08
5.18215e-08
5.21151e-08
5.24094e-08
5.26914e-08
5.29654e-08
5.32246e-08
5.3473e-08
5.37165e-08
5.39455e-08
5.4178e-08
5.43904e-08
5.45981e-08
5.47964e-08
5.49995e-08
5.52052e-08
5.54158e-08
5.56322e-08
5.58611e-08
5.60955e-08
5.6335e-08
5.65802e-08
5.68299e-08
5.70898e-08
5.73623e-08
5.76464e-08
5.79415e-08
5.82485e-08
5.85701e-08
5.89022e-08
5.92392e-08
5.95923e-08
5.99566e-08
6.03296e-08
6.07117e-08
6.11016e-08
6.14994e-08
6.19091e-08
6.23334e-08
6.27634e-08
6.31936e-08
6.36174e-08
6.40254e-08
6.4417e-08
6.48068e-08
6.51951e-08
6.5582e-08
6.59627e-08
6.6335e-08
6.66971e-08
6.7046e-08
6.73805e-08
6.76975e-08
6.79959e-08
6.82805e-08
6.8543e-08
6.87779e-08
6.89778e-08
6.91362e-08
6.92578e-08
6.93407e-08
6.93817e-08
6.9376e-08
6.93262e-08
6.92321e-08
6.90916e-08
6.89044e-08
6.86687e-08
6.83856e-08
6.80547e-08
6.76692e-08
6.72292e-08
6.67489e-08
6.62141e-08
6.56402e-08
6.50102e-08
6.43418e-08
6.36293e-08
6.28787e-08
6.20972e-08
6.12959e-08
6.04672e-08
5.96214e-08
5.8759e-08
5.78974e-08
5.70189e-08
5.6143e-08
5.52884e-08
5.44065e-08
5.35987e-08
5.27554e-08
5.19457e-08
5.1279e-08
3.4845e-07
3.4523e-07
3.4667e-07
3.49245e-07
3.53564e-07
3.58765e-07
3.63989e-07
3.69556e-07
3.75191e-07
3.8099e-07
3.86815e-07
3.92665e-07
3.98501e-07
4.0429e-07
4.1004e-07
4.15675e-07
4.21283e-07
4.26695e-07
4.31993e-07
4.37131e-07
4.42187e-07
4.47146e-07
4.52015e-07
4.56785e-07
4.61489e-07
4.66093e-07
4.70595e-07
4.74996e-07
4.79291e-07
4.83511e-07
4.87675e-07
4.91774e-07
4.95807e-07
4.99779e-07
5.03722e-07
5.07604e-07
5.11391e-07
5.15182e-07
5.18924e-07
5.2254e-07
5.25995e-07
5.29389e-07
5.32729e-07
5.36025e-07
5.39299e-07
5.42497e-07
5.45577e-07
5.48487e-07
5.51149e-07
5.5355e-07
5.55821e-07
5.57962e-07
5.59977e-07
5.61833e-07
5.63515e-07
5.6501e-07
5.66295e-07
5.67364e-07
5.6819e-07
5.68748e-07
5.69083e-07
5.69133e-07
5.68862e-07
5.68246e-07
5.6723e-07
5.65836e-07
5.64052e-07
5.61865e-07
5.5924e-07
5.56191e-07
5.52722e-07
5.4882e-07
5.4449e-07
5.39721e-07
5.34534e-07
5.28936e-07
5.22875e-07
5.16355e-07
5.09521e-07
5.02252e-07
4.94691e-07
4.86702e-07
4.78451e-07
4.6991e-07
4.61142e-07
4.52199e-07
4.43115e-07
4.33948e-07
4.24787e-07
4.15662e-07
4.06683e-07
3.9778e-07
3.89102e-07
3.80805e-07
3.72727e-07
3.65448e-07
3.58497e-07
3.52441e-07
3.48e-07
1.17896e-06
1.1733e-06
1.1823e-06
1.19614e-06
1.2168e-06
1.24129e-06
1.26661e-06
1.29379e-06
1.32149e-06
1.3492e-06
1.37722e-06
1.4055e-06
1.43406e-06
1.46257e-06
1.49095e-06
1.51896e-06
1.54677e-06
1.57382e-06
1.60028e-06
1.62597e-06
1.65105e-06
1.67545e-06
1.69918e-06
1.72216e-06
1.74445e-06
1.76596e-06
1.78669e-06
1.80661e-06
1.82571e-06
1.84406e-06
1.86173e-06
1.87868e-06
1.89489e-06
1.91038e-06
1.92533e-06
1.9396e-06
1.95302e-06
1.9654e-06
1.97699e-06
1.98785e-06
1.99793e-06
2.00739e-06
2.01626e-06
2.02456e-06
2.03236e-06
2.03953e-06
2.04596e-06
2.05151e-06
2.05591e-06
2.059e-06
2.0614e-06
2.06311e-06
2.06418e-06
2.06452e-06
2.06412e-06
2.06295e-06
2.06097e-06
2.05815e-06
2.05445e-06
2.04978e-06
2.0443e-06
2.03783e-06
2.03031e-06
2.0217e-06
2.01189e-06
2.0009e-06
1.98871e-06
1.97531e-06
1.96061e-06
1.94464e-06
1.92742e-06
1.90894e-06
1.88922e-06
1.86823e-06
1.84605e-06
1.8228e-06
1.79818e-06
1.77211e-06
1.74456e-06
1.71577e-06
1.68615e-06
1.65548e-06
1.62415e-06
1.59218e-06
1.55976e-06
1.52707e-06
1.49428e-06
1.46152e-06
1.42907e-06
1.39706e-06
1.36577e-06
1.33509e-06
1.30548e-06
1.27745e-06
1.2508e-06
1.2271e-06
1.2054e-06
1.18764e-06
1.17637e-06
2.57879e-06
2.57691e-06
2.60341e-06
2.64102e-06
2.69365e-06
2.75494e-06
2.81881e-06
2.88704e-06
2.95676e-06
3.02727e-06
3.09838e-06
3.16967e-06
3.23988e-06
3.30954e-06
3.37847e-06
3.44634e-06
3.51335e-06
3.57831e-06
3.6414e-06
3.70226e-06
3.76106e-06
3.81769e-06
3.87209e-06
3.92413e-06
3.97386e-06
4.02116e-06
4.06601e-06
4.10836e-06
4.14823e-06
4.18571e-06
4.22103e-06
4.25418e-06
4.28497e-06
4.31332e-06
4.33895e-06
4.36214e-06
4.38298e-06
4.40155e-06
4.41808e-06
4.43271e-06
4.44541e-06
4.45638e-06
4.46571e-06
4.47342e-06
4.47966e-06
4.48428e-06
4.48713e-06
4.48804e-06
4.48543e-06
4.47408e-06
4.46137e-06
4.44733e-06
4.43206e-06
4.41553e-06
4.39776e-06
4.37875e-06
4.35851e-06
4.33702e-06
4.31423e-06
4.2901e-06
4.26491e-06
4.23834e-06
4.21039e-06
4.18103e-06
4.15011e-06
4.1177e-06
4.08378e-06
4.04829e-06
4.01116e-06
3.97243e-06
3.93211e-06
3.8902e-06
3.84668e-06
3.80139e-06
3.75397e-06
3.70449e-06
3.65328e-06
3.60038e-06
3.54595e-06
3.49024e-06
3.43362e-06
3.37597e-06
3.31782e-06
3.25927e-06
3.2007e-06
3.1424e-06
3.08468e-06
3.02776e-06
2.97208e-06
2.91789e-06
2.8655e-06
2.81485e-06
2.76679e-06
2.72184e-06
2.68034e-06
2.64403e-06
2.61226e-06
2.5836e-06
2.56915e-06
4.28407e-06
4.3063e-06
4.36973e-06
4.45168e-06
4.55847e-06
4.67679e-06
4.80113e-06
4.93203e-06
5.06536e-06
5.20002e-06
5.33488e-06
5.46898e-06
5.60086e-06
5.73038e-06
5.8567e-06
5.97895e-06
6.09665e-06
6.20921e-06
6.31675e-06
6.41893e-06
6.51608e-06
6.60798e-06
6.69431e-06
6.77492e-06
6.8499e-06
6.91913e-06
6.98263e-06
7.04045e-06
7.09261e-06
7.13925e-06
7.18036e-06
7.21607e-06
7.24668e-06
7.27228e-06
7.29303e-06
7.30924e-06
7.32109e-06
7.32898e-06
7.33318e-06
7.33393e-06
7.33132e-06
7.32565e-06
7.31706e-06
7.3057e-06
7.29174e-06
7.27507e-06
7.25562e-06
7.23334e-06
7.20818e-06
7.18052e-06
7.15107e-06
7.11998e-06
7.0874e-06
7.0533e-06
7.01773e-06
6.98073e-06
6.94227e-06
6.90238e-06
6.86099e-06
6.81808e-06
6.77388e-06
6.72803e-06
6.68051e-06
6.63128e-06
6.58017e-06
6.52724e-06
6.4724e-06
6.41558e-06
6.35664e-06
6.29561e-06
6.23244e-06
6.16702e-06
6.09866e-06
6.02729e-06
5.95333e-06
5.87697e-06
5.79849e-06
5.71801e-06
5.63579e-06
5.55206e-06
5.46724e-06
5.38127e-06
5.29485e-06
5.20817e-06
5.12175e-06
5.03604e-06
4.95141e-06
4.86823e-06
4.78708e-06
4.70829e-06
4.63226e-06
4.55901e-06
4.48981e-06
4.4255e-06
4.36705e-06
4.31721e-06
4.27683e-06
4.25419e-06
4.25826e-06
6.37499e-06
6.4255e-06
6.53349e-06
6.66927e-06
6.84068e-06
7.02737e-06
7.22226e-06
7.42504e-06
7.62987e-06
7.83514e-06
8.03867e-06
8.23902e-06
8.43424e-06
8.62366e-06
8.80596e-06
8.97997e-06
9.14534e-06
9.30095e-06
9.44712e-06
9.58341e-06
9.7106e-06
9.82917e-06
9.9385e-06
1.00382e-05
1.01286e-05
1.02096e-05
1.02815e-05
1.03445e-05
1.03988e-05
1.04446e-05
1.04823e-05
1.05122e-05
1.05349e-05
1.05506e-05
1.05598e-05
1.0563e-05
1.05605e-05
1.05529e-05
1.05405e-05
1.05236e-05
1.05026e-05
1.04778e-05
1.04494e-05
1.04176e-05
1.03827e-05
1.03448e-05
1.03041e-05
1.02609e-05
1.02158e-05
1.01693e-05
1.01211e-05
1.00714e-05
1.00203e-05
9.96787e-06
9.91417e-06
9.85922e-06
9.80299e-06
9.74549e-06
9.68665e-06
9.62643e-06
9.56494e-06
9.50173e-06
9.4365e-06
9.36943e-06
9.30031e-06
9.22912e-06
9.15571e-06
9.07992e-06
9.00154e-06
8.92047e-06
8.83647e-06
8.7486e-06
8.65727e-06
8.56275e-06
8.46541e-06
8.36548e-06
8.26314e-06
8.15855e-06
8.052e-06
7.94371e-06
7.83415e-06
7.72328e-06
7.61197e-06
7.50044e-06
7.38938e-06
7.27929e-06
7.17061e-06
7.06383e-06
6.95971e-06
6.85867e-06
6.76114e-06
6.66728e-06
6.57887e-06
6.49728e-06
6.42438e-06
6.36448e-06
6.32029e-06
6.30407e-06
6.32557e-06
8.8878e-06
8.97359e-06
9.13491e-06
9.33278e-06
9.57734e-06
9.83954e-06
1.01105e-05
1.03884e-05
1.06645e-05
1.09371e-05
1.12048e-05
1.14656e-05
1.17169e-05
1.1958e-05
1.21873e-05
1.24035e-05
1.26066e-05
1.2795e-05
1.29692e-05
1.31286e-05
1.32736e-05
1.34044e-05
1.35223e-05
1.36269e-05
1.37185e-05
1.37976e-05
1.38645e-05
1.39197e-05
1.39637e-05
1.39971e-05
1.40204e-05
1.40344e-05
1.40397e-05
1.40369e-05
1.40266e-05
1.40094e-05
1.39858e-05
1.39565e-05
1.39219e-05
1.38826e-05
1.38389e-05
1.37914e-05
1.37403e-05
1.3686e-05
1.36289e-05
1.35694e-05
1.35077e-05
1.34445e-05
1.338e-05
1.33146e-05
1.3248e-05
1.31805e-05
1.31122e-05
1.30431e-05
1.29734e-05
1.2903e-05
1.28319e-05
1.276e-05
1.26873e-05
1.26136e-05
1.2539e-05
1.24632e-05
1.23859e-05
1.2307e-05
1.22262e-05
1.21434e-05
1.20582e-05
1.19705e-05
1.18798e-05
1.17857e-05
1.16876e-05
1.15856e-05
1.14802e-05
1.13715e-05
1.12598e-05
1.11453e-05
1.10281e-05
1.09083e-05
1.07861e-05
1.06618e-05
1.05359e-05
1.04081e-05
1.02794e-05
1.01502e-05
1.00212e-05
9.89279e-06
9.76507e-06
9.63882e-06
9.51554e-06
9.39569e-06
9.27976e-06
9.16801e-06
9.06292e-06
8.9666e-06
8.88205e-06
8.81545e-06
8.77097e-06
8.76435e-06
8.80769e-06
1.18226e-05
1.1946e-05
1.21629e-05
1.24207e-05
1.273e-05
1.30589e-05
1.33958e-05
1.37375e-05
1.40655e-05
1.43748e-05
1.46782e-05
1.49741e-05
1.52595e-05
1.55335e-05
1.57951e-05
1.60422e-05
1.62756e-05
1.64927e-05
1.66946e-05
1.68801e-05
1.70496e-05
1.7181e-05
1.7292e-05
1.73867e-05
1.74657e-05
1.75298e-05
1.75796e-05
1.76159e-05
1.76396e-05
1.76515e-05
1.76525e-05
1.76433e-05
1.7625e-05
1.75982e-05
1.75637e-05
1.75223e-05
1.74745e-05
1.74212e-05
1.73629e-05
1.73004e-05
1.72339e-05
1.71642e-05
1.70917e-05
1.70168e-05
1.69403e-05
1.68623e-05
1.67833e-05
1.67039e-05
1.66242e-05
1.65443e-05
1.64642e-05
1.63842e-05
1.63044e-05
1.62249e-05
1.61458e-05
1.60669e-05
1.59882e-05
1.59096e-05
1.5831e-05
1.57522e-05
1.56731e-05
1.55933e-05
1.55127e-05
1.54309e-05
1.53475e-05
1.52621e-05
1.51743e-05
1.50836e-05
1.49896e-05
1.48917e-05
1.47898e-05
1.46845e-05
1.45759e-05
1.44639e-05
1.43483e-05
1.42295e-05
1.41073e-05
1.39819e-05
1.38534e-05
1.37223e-05
1.35887e-05
1.34524e-05
1.33142e-05
1.31745e-05
1.30339e-05
1.28931e-05
1.27527e-05
1.26132e-05
1.24759e-05
1.23413e-05
1.22103e-05
1.2083e-05
1.19629e-05
1.18529e-05
1.17575e-05
1.16849e-05
1.16406e-05
1.16446e-05
1.17111e-05
1.51324e-05
1.52768e-05
1.55336e-05
1.58313e-05
1.61428e-05
1.64905e-05
1.68466e-05
1.72135e-05
1.75784e-05
1.79364e-05
1.8285e-05
1.8622e-05
1.89444e-05
1.92511e-05
1.9541e-05
1.98122e-05
2.00654e-05
2.0298e-05
2.05113e-05
2.07044e-05
2.08779e-05
2.10127e-05
2.11041e-05
2.11776e-05
2.12339e-05
2.12741e-05
2.12992e-05
2.13102e-05
2.13082e-05
2.12943e-05
2.12695e-05
2.12348e-05
2.11913e-05
2.11397e-05
2.10811e-05
2.10161e-05
2.09457e-05
2.08706e-05
2.07915e-05
2.07092e-05
2.06243e-05
2.05373e-05
2.04488e-05
2.03595e-05
2.02699e-05
2.01803e-05
2.00913e-05
2.00031e-05
1.9916e-05
1.98299e-05
1.97452e-05
1.96619e-05
1.95802e-05
1.95001e-05
1.94217e-05
1.93449e-05
1.92695e-05
1.91954e-05
1.91224e-05
1.90501e-05
1.89782e-05
1.89065e-05
1.88345e-05
1.87618e-05
1.86879e-05
1.86122e-05
1.85342e-05
1.84531e-05
1.83681e-05
1.82793e-05
1.81871e-05
1.80915e-05
1.79925e-05
1.78896e-05
1.77823e-05
1.76705e-05
1.7554e-05
1.74328e-05
1.73072e-05
1.71774e-05
1.70442e-05
1.69067e-05
1.67655e-05
1.66206e-05
1.6473e-05
1.63232e-05
1.61718e-05
1.60192e-05
1.58669e-05
1.57158e-05
1.55672e-05
1.54211e-05
1.5282e-05
1.51538e-05
1.50424e-05
1.49579e-05
1.49081e-05
1.49178e-05
1.50011e-05
1.86971e-05
1.87855e-05
1.90051e-05
1.92936e-05
1.96479e-05
2.00413e-05
2.04428e-05
2.08538e-05
2.12598e-05
2.16551e-05
2.20369e-05
2.24031e-05
2.27505e-05
2.30779e-05
2.33844e-05
2.3668e-05
2.39296e-05
2.41667e-05
2.43809e-05
2.45716e-05
2.47029e-05
2.4789e-05
2.48542e-05
2.49008e-05
2.49301e-05
2.49432e-05
2.49415e-05
2.49262e-05
2.48986e-05
2.48599e-05
2.48112e-05
2.47536e-05
2.46882e-05
2.46159e-05
2.45377e-05
2.44545e-05
2.43672e-05
2.42768e-05
2.4184e-05
2.40896e-05
2.39942e-05
2.38987e-05
2.38035e-05
2.37092e-05
2.36163e-05
2.35253e-05
2.34366e-05
2.33504e-05
2.32671e-05
2.31867e-05
2.31095e-05
2.30354e-05
2.29646e-05
2.28969e-05
2.28324e-05
2.2771e-05
2.27126e-05
2.2657e-05
2.26036e-05
2.25522e-05
2.2502e-05
2.24525e-05
2.24032e-05
2.23537e-05
2.23032e-05
2.22514e-05
2.21974e-05
2.21402e-05
2.20788e-05
2.20135e-05
2.19441e-05
2.18703e-05
2.17921e-05
2.17092e-05
2.16211e-05
2.1526e-05
2.14235e-05
2.13133e-05
2.11955e-05
2.10703e-05
2.09392e-05
2.08019e-05
2.0658e-05
2.05073e-05
2.0351e-05
2.01894e-05
2.0023e-05
1.98522e-05
1.96784e-05
1.9502e-05
1.93249e-05
1.9149e-05
1.89795e-05
1.88209e-05
1.868e-05
1.85688e-05
1.84965e-05
1.84934e-05
1.85682e-05
2.22768e-05
2.23712e-05
2.2611e-05
2.2929e-05
2.33155e-05
2.37434e-05
2.41789e-05
2.46219e-05
2.50568e-05
2.54772e-05
2.58802e-05
2.62637e-05
2.66244e-05
2.69612e-05
2.72733e-05
2.75583e-05
2.78175e-05
2.80489e-05
2.82243e-05
2.83195e-05
2.83917e-05
2.84464e-05
2.84847e-05
2.85048e-05
2.85087e-05
2.84973e-05
2.84724e-05
2.84351e-05
2.83869e-05
2.8329e-05
2.82627e-05
2.81892e-05
2.81094e-05
2.80246e-05
2.79357e-05
2.78435e-05
2.77491e-05
2.76534e-05
2.75574e-05
2.74619e-05
2.73677e-05
2.72755e-05
2.71859e-05
2.70993e-05
2.70163e-05
2.69371e-05
2.68621e-05
2.67918e-05
2.67264e-05
2.66663e-05
2.66115e-05
2.6562e-05
2.65177e-05
2.64782e-05
2.64434e-05
2.64132e-05
2.63873e-05
2.63655e-05
2.63475e-05
2.63327e-05
2.63201e-05
2.63086e-05
2.62972e-05
2.62853e-05
2.62719e-05
2.62569e-05
2.62396e-05
2.62193e-05
2.61953e-05
2.61654e-05
2.61288e-05
2.60845e-05
2.60323e-05
2.59727e-05
2.5907e-05
2.58304e-05
2.57426e-05
2.56421e-05
2.55289e-05
2.54024e-05
2.52628e-05
2.51101e-05
2.4948e-05
2.4776e-05
2.45955e-05
2.44069e-05
2.42108e-05
2.40077e-05
2.37987e-05
2.35798e-05
2.33467e-05
2.31164e-05
2.28932e-05
2.26833e-05
2.24895e-05
2.23265e-05
2.21967e-05
2.21266e-05
2.21399e-05
2.60139e-05
2.61074e-05
2.63581e-05
2.66956e-05
2.71034e-05
2.75539e-05
2.80116e-05
2.84737e-05
2.89246e-05
2.93574e-05
2.97699e-05
3.01598e-05
3.05234e-05
3.08601e-05
3.11684e-05
3.14477e-05
3.16563e-05
3.1768e-05
3.18496e-05
3.19063e-05
3.19517e-05
3.19841e-05
3.20004e-05
3.20003e-05
3.19856e-05
3.19575e-05
3.19175e-05
3.1867e-05
3.18074e-05
3.17401e-05
3.16664e-05
3.15876e-05
3.15049e-05
3.14193e-05
3.13319e-05
3.12436e-05
3.11553e-05
3.1068e-05
3.09826e-05
3.09001e-05
3.08214e-05
3.07473e-05
3.06784e-05
3.06152e-05
3.05581e-05
3.05072e-05
3.04626e-05
3.04249e-05
3.03944e-05
3.03713e-05
3.03557e-05
3.03479e-05
3.03477e-05
3.03545e-05
3.03673e-05
3.03854e-05
3.04084e-05
3.04361e-05
3.0468e-05
3.05041e-05
3.05435e-05
3.05849e-05
3.06247e-05
3.06621e-05
3.0696e-05
3.07254e-05
3.07499e-05
3.07706e-05
3.07868e-05
3.07931e-05
3.07879e-05
3.07695e-05
3.07362e-05
3.06865e-05
3.06201e-05
3.05398e-05
3.04441e-05
3.03323e-05
3.02034e-05
3.0056e-05
2.98797e-05
2.96548e-05
2.94201e-05
2.91762e-05
2.89247e-05
2.86672e-05
2.84045e-05
2.81374e-05
2.78684e-05
2.75987e-05
2.73301e-05
2.70633e-05
2.68029e-05
2.65559e-05
2.6326e-05
2.61294e-05
2.597e-05
2.58769e-05
2.5877e-05
2.98697e-05
2.99551e-05
3.02073e-05
3.05542e-05
3.09724e-05
3.14344e-05
3.19033e-05
3.23759e-05
3.28347e-05
3.32726e-05
3.36864e-05
3.40745e-05
3.44328e-05
3.47625e-05
3.49865e-05
3.51193e-05
3.52163e-05
3.52833e-05
3.53366e-05
3.53808e-05
3.54137e-05
3.54328e-05
3.54369e-05
3.54271e-05
3.54052e-05
3.53723e-05
3.53299e-05
3.5279e-05
3.52213e-05
3.51581e-05
3.5091e-05
3.50212e-05
3.495e-05
3.48787e-05
3.48085e-05
3.47403e-05
3.4675e-05
3.46134e-05
3.45562e-05
3.45043e-05
3.44587e-05
3.44203e-05
3.43898e-05
3.4368e-05
3.43554e-05
3.43523e-05
3.43583e-05
3.43731e-05
3.43967e-05
3.44292e-05
3.44706e-05
3.45215e-05
3.45821e-05
3.46525e-05
3.47311e-05
3.48143e-05
3.49016e-05
3.49918e-05
3.50841e-05
3.51784e-05
3.52747e-05
3.53744e-05
3.54693e-05
3.55581e-05
3.56388e-05
3.57093e-05
3.57673e-05
3.58114e-05
3.58406e-05
3.58562e-05
3.58558e-05
3.58372e-05
3.57977e-05
3.57325e-05
3.55851e-05
3.54232e-05
3.52467e-05
3.50552e-05
3.48492e-05
3.46283e-05
3.43942e-05
3.41461e-05
3.38855e-05
3.3613e-05
3.33301e-05
3.30383e-05
3.2739e-05
3.24334e-05
3.2124e-05
3.18123e-05
3.15009e-05
3.11901e-05
3.0885e-05
3.05936e-05
3.03203e-05
3.00828e-05
2.98864e-05
2.97626e-05
2.97414e-05
3.38236e-05
3.38938e-05
3.41388e-05
3.44862e-05
3.49055e-05
3.53696e-05
3.58406e-05
3.6314e-05
3.67714e-05
3.7206e-05
3.76134e-05
3.79943e-05
3.82223e-05
3.8377e-05
3.84914e-05
3.85769e-05
3.86492e-05
3.87131e-05
3.87677e-05
3.88127e-05
3.88449e-05
3.88637e-05
3.88699e-05
3.88652e-05
3.88514e-05
3.88297e-05
3.88015e-05
3.87678e-05
3.87298e-05
3.86888e-05
3.86463e-05
3.86037e-05
3.85625e-05
3.8524e-05
3.84897e-05
3.84608e-05
3.84386e-05
3.84239e-05
3.84166e-05
3.8417e-05
3.84258e-05
3.8444e-05
3.8472e-05
3.8511e-05
3.85621e-05
3.86262e-05
3.87036e-05
3.87923e-05
3.889e-05
3.89967e-05
3.91116e-05
3.92347e-05
3.93663e-05
3.95079e-05
3.96612e-05
3.98168e-05
3.99737e-05
4.01297e-05
4.02825e-05
4.04297e-05
4.05681e-05
4.06975e-05
4.08193e-05
4.09306e-05
4.10289e-05
4.11112e-05
4.11734e-05
4.11924e-05
4.11322e-05
4.10581e-05
4.09693e-05
4.08648e-05
4.07441e-05
4.06065e-05
4.04521e-05
4.028e-05
4.009e-05
3.98818e-05
3.96558e-05
3.94117e-05
3.9151e-05
3.88729e-05
3.85792e-05
3.82706e-05
3.79489e-05
3.76157e-05
3.72726e-05
3.69211e-05
3.65638e-05
3.62025e-05
3.584e-05
3.54772e-05
3.51195e-05
3.47758e-05
3.44514e-05
3.41654e-05
3.39245e-05
3.37624e-05
3.37116e-05
3.78528e-05
3.79014e-05
3.81316e-05
3.84716e-05
3.88845e-05
3.93433e-05
3.98097e-05
4.02778e-05
4.07278e-05
4.11555e-05
4.13869e-05
4.15642e-05
4.16975e-05
4.18061e-05
4.19058e-05
4.19998e-05
4.20888e-05
4.21715e-05
4.22446e-05
4.23059e-05
4.23549e-05
4.23924e-05
4.24203e-05
4.24403e-05
4.24543e-05
4.24637e-05
4.24705e-05
4.24759e-05
4.24808e-05
4.24856e-05
4.24913e-05
4.24993e-05
4.25109e-05
4.25277e-05
4.25511e-05
4.25829e-05
4.26248e-05
4.2679e-05
4.27458e-05
4.28229e-05
4.29097e-05
4.30068e-05
4.31142e-05
4.32326e-05
4.33627e-05
4.35061e-05
4.36659e-05
4.38404e-05
4.4023e-05
4.42127e-05
4.44077e-05
4.4606e-05
4.48054e-05
4.50035e-05
4.51999e-05
4.5397e-05
4.55918e-05
4.5782e-05
4.59639e-05
4.61333e-05
4.62791e-05
4.63253e-05
4.6363e-05
4.63905e-05
4.64059e-05
4.6407e-05
4.63856e-05
4.63486e-05
4.62965e-05
4.62274e-05
4.61403e-05
4.60343e-05
4.59085e-05
4.57621e-05
4.55948e-05
4.54061e-05
4.51958e-05
4.49636e-05
4.471e-05
4.44346e-05
4.41391e-05
4.38226e-05
4.34873e-05
4.3134e-05
4.27646e-05
4.23811e-05
4.19852e-05
4.15787e-05
4.11647e-05
4.07451e-05
4.0323e-05
3.98997e-05
3.94813e-05
3.90773e-05
3.86942e-05
3.83522e-05
3.80597e-05
3.78521e-05
3.77647e-05
4.19474e-05
4.19684e-05
4.21777e-05
4.25045e-05
4.29057e-05
4.33547e-05
4.3812e-05
4.42726e-05
4.45149e-05
4.47132e-05
4.48697e-05
4.50085e-05
4.51464e-05
4.52809e-05
4.54154e-05
4.55479e-05
4.5676e-05
4.57963e-05
4.59085e-05
4.60103e-05
4.61026e-05
4.61858e-05
4.62621e-05
4.63328e-05
4.63999e-05
4.6465e-05
4.65309e-05
4.65999e-05
4.66739e-05
4.67526e-05
4.68341e-05
4.692e-05
4.70112e-05
4.71087e-05
4.72138e-05
4.73274e-05
4.74515e-05
4.75896e-05
4.77457e-05
4.79151e-05
4.80945e-05
4.82841e-05
4.84826e-05
4.86893e-05
4.89024e-05
4.91204e-05
4.93424e-05
4.95699e-05
4.98042e-05
5.00431e-05
5.02841e-05
5.05241e-05
5.07579e-05
5.09742e-05
5.10778e-05
5.11809e-05
5.12823e-05
5.13807e-05
5.14746e-05
5.15627e-05
5.16434e-05
5.17155e-05
5.17764e-05
5.18244e-05
5.18578e-05
5.1868e-05
5.18569e-05
5.18275e-05
5.17789e-05
5.17098e-05
5.16189e-05
5.1505e-05
5.13672e-05
5.12047e-05
5.1017e-05
5.08037e-05
5.05647e-05
5.02998e-05
5.00095e-05
4.96936e-05
4.93538e-05
4.89894e-05
4.86029e-05
4.81951e-05
4.77683e-05
4.73247e-05
4.68663e-05
4.63953e-05
4.59151e-05
4.54279e-05
4.49373e-05
4.44449e-05
4.39574e-05
4.34852e-05
4.30359e-05
4.26306e-05
4.22796e-05
4.20198e-05
4.18895e-05
4.61075e-05
4.60957e-05
4.628e-05
4.65899e-05
4.69765e-05
4.74146e-05
4.7668e-05
4.78812e-05
4.80554e-05
4.82238e-05
4.84068e-05
4.85953e-05
4.87953e-05
4.89979e-05
4.91992e-05
4.9396e-05
4.95869e-05
4.97699e-05
4.9949e-05
5.01238e-05
5.02941e-05
5.04573e-05
5.06156e-05
5.07697e-05
5.09211e-05
5.10711e-05
5.1222e-05
5.13767e-05
5.15403e-05
5.17147e-05
5.18933e-05
5.20775e-05
5.22677e-05
5.24642e-05
5.26671e-05
5.28758e-05
5.30897e-05
5.33084e-05
5.35321e-05
5.37641e-05
5.40052e-05
5.42547e-05
5.45111e-05
5.47725e-05
5.50351e-05
5.52931e-05
5.54975e-05
5.56257e-05
5.5758e-05
5.58943e-05
5.60336e-05
5.61753e-05
5.63187e-05
5.64629e-05
5.66073e-05
5.67497e-05
5.68886e-05
5.70226e-05
5.71498e-05
5.72685e-05
5.73769e-05
5.74729e-05
5.75544e-05
5.76192e-05
5.76655e-05
5.76824e-05
5.7677e-05
5.76497e-05
5.75989e-05
5.75233e-05
5.74215e-05
5.72921e-05
5.71343e-05
5.69471e-05
5.673e-05
5.64829e-05
5.62058e-05
5.58983e-05
5.55612e-05
5.51944e-05
5.48e-05
5.43773e-05
5.39289e-05
5.3456e-05
5.29612e-05
5.24469e-05
5.19156e-05
5.13698e-05
5.08133e-05
5.02489e-05
4.96804e-05
4.911e-05
4.85449e-05
4.79963e-05
4.7473e-05
4.69974e-05
4.65815e-05
4.62635e-05
4.60846e-05
5.03429e-05
5.02942e-05
5.04511e-05
5.07432e-05
5.09634e-05
5.11458e-05
5.13277e-05
5.15233e-05
5.17462e-05
5.19882e-05
5.22571e-05
5.25413e-05
5.28405e-05
5.31465e-05
5.34482e-05
5.37433e-05
5.40308e-05
5.43092e-05
5.45852e-05
5.4863e-05
5.51422e-05
5.54162e-05
5.56861e-05
5.59522e-05
5.62151e-05
5.64745e-05
5.67308e-05
5.69836e-05
5.72337e-05
5.74841e-05
5.77389e-05
5.79979e-05
5.82618e-05
5.85304e-05
5.88031e-05
5.90781e-05
5.93525e-05
5.96205e-05
5.98044e-05
5.99444e-05
6.00887e-05
6.02377e-05
6.03916e-05
6.05505e-05
6.07144e-05
6.08834e-05
6.10577e-05
6.1237e-05
6.142e-05
6.16061e-05
6.17944e-05
6.19841e-05
6.2174e-05
6.23628e-05
6.25493e-05
6.27316e-05
6.29079e-05
6.30766e-05
6.32355e-05
6.33826e-05
6.35157e-05
6.36326e-05
6.37309e-05
6.3808e-05
6.38606e-05
6.38808e-05
6.38755e-05
6.38437e-05
6.37839e-05
6.36942e-05
6.35734e-05
6.34199e-05
6.3233e-05
6.30117e-05
6.27555e-05
6.24644e-05
6.21385e-05
6.17777e-05
6.13828e-05
6.0954e-05
6.04936e-05
6.00011e-05
5.94793e-05
5.89299e-05
5.83555e-05
5.77591e-05
5.71436e-05
5.65121e-05
5.58687e-05
5.52167e-05
5.45604e-05
5.39025e-05
5.32507e-05
5.26174e-05
5.20125e-05
5.14594e-05
5.09722e-05
5.05905e-05
5.03584e-05
5.46729e-05
5.45847e-05
5.46269e-05
5.468e-05
5.48164e-05
5.49823e-05
5.52263e-05
5.55226e-05
5.58623e-05
5.62313e-05
5.66245e-05
5.70326e-05
5.74556e-05
5.78928e-05
5.8326e-05
5.87523e-05
5.91698e-05
5.95741e-05
5.99675e-05
6.03483e-05
6.0723e-05
6.10927e-05
6.14575e-05
6.18175e-05
6.21725e-05
6.25213e-05
6.28626e-05
6.31921e-05
6.3478e-05
6.36675e-05
6.38538e-05
6.40379e-05
6.42208e-05
6.44033e-05
6.45863e-05
6.47708e-05
6.49574e-05
6.51473e-05
6.53414e-05
6.554e-05
6.5743e-05
6.59509e-05
6.61636e-05
6.63812e-05
6.66037e-05
6.68306e-05
6.70618e-05
6.72966e-05
6.75339e-05
6.77731e-05
6.80129e-05
6.82521e-05
6.84895e-05
6.87234e-05
6.89521e-05
6.91738e-05
6.93864e-05
6.9588e-05
6.97762e-05
6.99487e-05
7.01032e-05
7.02372e-05
7.03485e-05
7.04351e-05
7.04848e-05
7.0503e-05
7.04912e-05
7.04479e-05
7.03711e-05
7.02592e-05
7.01105e-05
6.99238e-05
6.96981e-05
6.94325e-05
6.91266e-05
6.87806e-05
6.83947e-05
6.79689e-05
6.75043e-05
6.70016e-05
6.64629e-05
6.58883e-05
6.52807e-05
6.46422e-05
6.39758e-05
6.3285e-05
6.25731e-05
6.18438e-05
6.11019e-05
6.03512e-05
5.95962e-05
5.88405e-05
5.80924e-05
5.73653e-05
5.66705e-05
5.60327e-05
5.5468e-05
5.50175e-05
5.47285e-05
5.9125e-05
5.88569e-05
5.87879e-05
5.88163e-05
5.90039e-05
5.92683e-05
5.96381e-05
6.00803e-05
6.05674e-05
6.1088e-05
6.16285e-05
6.21767e-05
6.2724e-05
6.32688e-05
6.38114e-05
6.43472e-05
6.48737e-05
6.53839e-05
6.58743e-05
6.62752e-05
6.65925e-05
6.68988e-05
6.71951e-05
6.74822e-05
6.77611e-05
6.80326e-05
6.82977e-05
6.85574e-05
6.88133e-05
6.90663e-05
6.9317e-05
6.9566e-05
6.98145e-05
7.00631e-05
7.03128e-05
7.05642e-05
7.08182e-05
7.10753e-05
7.13363e-05
7.16013e-05
7.18704e-05
7.2144e-05
7.24218e-05
7.27038e-05
7.29896e-05
7.32788e-05
7.35706e-05
7.38644e-05
7.4159e-05
7.44535e-05
7.47464e-05
7.50362e-05
7.53214e-05
7.56002e-05
7.58705e-05
7.61304e-05
7.63776e-05
7.66098e-05
7.68244e-05
7.7019e-05
7.71908e-05
7.73373e-05
7.74558e-05
7.75438e-05
7.75886e-05
7.75988e-05
7.75736e-05
7.75111e-05
7.74094e-05
7.72665e-05
7.70808e-05
7.68511e-05
7.65763e-05
7.62557e-05
7.58891e-05
7.54765e-05
7.50185e-05
7.45154e-05
7.39686e-05
7.33789e-05
7.27489e-05
7.20788e-05
7.1372e-05
7.06308e-05
6.98588e-05
6.90599e-05
6.82382e-05
6.7398e-05
6.65447e-05
6.56827e-05
6.48172e-05
6.39523e-05
6.30972e-05
6.22663e-05
6.14726e-05
6.07421e-05
6.00933e-05
5.9569e-05
5.92203e-05
6.37111e-05
6.33987e-05
6.33556e-05
6.3464e-05
6.37688e-05
6.41661e-05
6.46658e-05
6.5233e-05
6.58397e-05
6.64778e-05
6.7132e-05
6.77877e-05
6.84017e-05
6.88724e-05
6.93289e-05
6.97704e-05
7.01985e-05
7.06122e-05
7.10138e-05
7.14046e-05
7.17859e-05
7.21583e-05
7.25226e-05
7.28793e-05
7.32293e-05
7.35733e-05
7.39121e-05
7.42466e-05
7.45777e-05
7.49062e-05
7.52327e-05
7.55579e-05
7.58827e-05
7.62078e-05
7.65339e-05
7.68616e-05
7.71914e-05
7.75239e-05
7.78595e-05
7.81982e-05
7.85403e-05
7.88858e-05
7.92344e-05
7.95857e-05
7.99392e-05
8.02943e-05
8.06502e-05
8.10058e-05
8.136e-05
8.17114e-05
8.20585e-05
8.23994e-05
8.27325e-05
8.30557e-05
8.33667e-05
8.36633e-05
8.39429e-05
8.42032e-05
8.44412e-05
8.46542e-05
8.48394e-05
8.49938e-05
8.51144e-05
8.51975e-05
8.52329e-05
8.52286e-05
8.51829e-05
8.50936e-05
8.49586e-05
8.47758e-05
8.45438e-05
8.4261e-05
8.39267e-05
8.354e-05
8.31008e-05
8.26096e-05
8.2067e-05
8.14735e-05
8.0831e-05
8.01405e-05
7.94049e-05
7.86249e-05
7.78041e-05
7.69454e-05
7.60528e-05
7.51308e-05
7.41844e-05
7.32186e-05
7.22396e-05
7.12524e-05
7.02628e-05
6.92759e-05
6.83016e-05
6.73555e-05
6.64526e-05
6.56204e-05
6.48799e-05
6.42762e-05
6.38649e-05
6.85225e-05
6.8321e-05
6.83919e-05
6.86038e-05
6.90219e-05
6.95316e-05
7.00986e-05
7.06568e-05
7.12225e-05
7.17855e-05
7.23422e-05
7.28908e-05
7.34301e-05
7.39598e-05
7.4479e-05
7.49866e-05
7.54842e-05
7.59703e-05
7.64469e-05
7.69145e-05
7.73746e-05
7.78276e-05
7.82742e-05
7.87148e-05
7.91499e-05
7.95801e-05
8.00058e-05
8.04276e-05
8.08464e-05
8.12625e-05
8.16766e-05
8.20893e-05
8.25013e-05
8.29131e-05
8.33253e-05
8.37382e-05
8.41524e-05
8.45681e-05
8.49857e-05
8.54052e-05
8.58265e-05
8.62496e-05
8.6674e-05
8.70992e-05
8.75244e-05
8.79489e-05
8.83717e-05
8.87915e-05
8.92071e-05
8.96167e-05
9.00187e-05
9.04111e-05
9.07919e-05
9.11588e-05
9.15093e-05
9.18411e-05
9.21512e-05
9.2437e-05
9.26956e-05
9.29238e-05
9.31188e-05
9.32774e-05
9.33968e-05
9.34669e-05
9.34877e-05
9.34625e-05
9.33893e-05
9.32655e-05
9.3089e-05
9.28576e-05
9.25697e-05
9.22238e-05
9.18191e-05
9.13549e-05
9.08313e-05
9.02487e-05
8.96082e-05
8.89106e-05
8.8158e-05
8.7352e-05
8.64956e-05
8.559e-05
8.46393e-05
8.36468e-05
8.2617e-05
8.15554e-05
8.04677e-05
7.93598e-05
7.82389e-05
7.71106e-05
7.59817e-05
7.4858e-05
7.37503e-05
7.2676e-05
7.1652e-05
7.07074e-05
6.98664e-05
6.91762e-05
6.86973e-05
7.35389e-05
7.329e-05
7.33556e-05
7.36345e-05
7.40485e-05
7.45593e-05
7.51241e-05
7.57249e-05
7.634e-05
7.69583e-05
7.75761e-05
7.81907e-05
7.88007e-05
7.9405e-05
8.00027e-05
8.05927e-05
8.11757e-05
8.17501e-05
8.23173e-05
8.28776e-05
8.34322e-05
8.39814e-05
8.45257e-05
8.50651e-05
8.56e-05
8.61305e-05
8.66569e-05
8.71794e-05
8.76987e-05
8.82149e-05
8.87286e-05
8.92401e-05
8.975e-05
9.02585e-05
9.07662e-05
9.12732e-05
9.17799e-05
9.22865e-05
9.27932e-05
9.32998e-05
9.38063e-05
9.43122e-05
9.48171e-05
9.53202e-05
9.58208e-05
9.63178e-05
9.681e-05
9.72962e-05
9.77747e-05
9.82437e-05
9.87014e-05
9.91455e-05
9.95738e-05
9.99838e-05
0.000100373
0.000100738
0.000101077
0.000101386
0.000101663
0.000101903
0.000102104
0.000102263
0.000102376
0.00010243
0.00010243
0.000102378
0.000102271
0.000102105
0.000101879
0.000101591
0.000101237
0.000100818