/*--------------------------------*- C++ -*----------------------------------*\
| =========                 |                                                 |
| \\      /  F ield         | OpenFOAM: The Open Source CFD Toolbox           |
|  \\    /   O peration     | Version:  2212                                  |
|   \\  /    A nd           | Website:  www.openfoam.com                      |
|    \\/     M anipulation  |                                                 |
\*---------------------------------------------------------------------------*/
FoamFile
{
    version     2.0;
    format      ascii;
    arch        "LSB;label=32;scalar=64";
    class       volScalarField;
    location    "2";
    object      omega;
}
// * * * * * * * * * * * * * * * * * * * * * * * * * * * * * * * * * * * * * //

dimensions      [0 0 -1 0 0 0 0];

internalField   nonuniform List<scalar> 
14751
(
100.011
100.014
100.005
99.9968
99.9911
99.9863
99.9811
99.9782
99.9781
99.9781
99.9782
99.9861
100.002
100.016
100.027
100.034
100.039
100.044
100.048
100.048
100.042
100.036
100.03
100.017
99.9978
99.9811
99.9684
99.961
99.9588
99.9565
99.9543
99.9521
99.95
99.948
99.9459
99.9481
99.9546
99.9612
99.9681
99.9813
100.002
100.021
100.036
100.044
100.046
100.049
100.051
100.053
100.055
100.057
100.059
100.059
100.057
100.055
100.053
100.051
100.049
100.046
100.044
100.036
100.022
100.003
99.9822
99.9691
99.9624
99.9558
99.9494
99.9465
99.947
99.9475
99.948
99.9486
99.9491
99.9497
99.9502
99.9509
99.9516
99.9522
99.9529
99.9536
99.9542
99.9548
99.9554
99.9577
99.9618
99.966
99.9703
99.9772
99.987
99.9999
100.015
100.021
100.02
100.019
100.018
100.017
100.014
100.01
100.005
16.9295
16.926
16.9043
16.8718
16.8296
16.783
16.7342
16.6838
16.6331
16.5823
16.5316
16.4824
16.4351
16.3884
16.3425
16.2977
16.254
16.2119
16.1715
16.1322
16.0939
16.0575
16.0229
15.9894
15.957
15.9267
15.8987
15.8731
15.8498
15.8282
15.8083
15.7898
15.7728
15.7573
15.7431
15.7307
15.7201
15.7106
15.7023
15.6958
15.6913
15.6874
15.6839
15.6806
15.6776
15.6753
15.6738
15.6731
15.6731
15.674
15.6755
15.6776
15.6802
15.6835
15.6876
15.6926
15.6983
15.7049
15.7123
15.72
15.7278
15.7361
15.7452
15.7563
15.7693
15.7835
15.799
15.8163
15.8353
15.8558
15.8778
15.9013
15.9263
15.9531
15.9814
16.0115
16.0433
16.0768
16.1121
16.1491
16.1877
16.2282
16.2701
16.3138
16.359
16.4054
16.4529
16.5015
16.5512
16.6015
16.652
16.7012
16.7483
16.7933
16.8353
16.872
16.9017
16.9218
16.9306
5.80539
5.80063
5.78211
5.75519
5.72111
5.68372
5.64441
5.60363
5.56251
5.52129
5.48029
5.43998
5.40065
5.36217
5.32469
5.28837
5.25326
5.21964
5.18744
5.15663
5.12717
5.09926
5.0729
5.04797
5.02442
5.00245
4.98208
4.96329
4.94606
4.93018
4.91561
4.9023
4.89019
4.87923
4.86938
4.8607
4.85315
4.84655
4.84087
4.83618
4.83243
4.82954
4.82749
4.82605
4.82514
4.82489
4.82529
4.82633
4.828
4.83028
4.83317
4.83663
4.84062
4.84521
4.85041
4.85622
4.86265
4.8697
4.87739
4.88563
4.89435
4.90369
4.91371
4.92463
4.93652
4.94925
4.96283
4.97738
4.99298
5.00955
5.02713
5.04576
5.06546
5.08629
5.10826
5.13138
5.1557
5.18125
5.20799
5.23599
5.26515
5.29558
5.32708
5.35972
5.39336
5.42784
5.46297
5.49877
5.53502
5.57151
5.60785
5.64373
5.67835
5.71113
5.74169
5.76785
5.78927
5.80366
5.80981
2.9745
2.96833
2.95188
2.93052
2.90366
2.87439
2.84435
2.81346
2.78241
2.7513
2.72052
2.69031
2.66088
2.63227
2.6046
2.57799
2.55246
2.52817
2.50506
2.48317
2.46245
2.44298
2.42474
2.40772
2.39186
2.37721
2.36374
2.35143
2.34025
2.33011
2.32097
2.3128
2.30556
2.29919
2.29367
2.28899
2.28511
2.28192
2.27943
2.27773
2.27684
2.27658
2.27693
2.27781
2.27917
2.28104
2.28341
2.28627
2.2896
2.29338
2.29761
2.30225
2.30729
2.31275
2.31861
2.32488
2.33154
2.33859
2.34605
2.35391
2.36209
2.37067
2.37967
2.38913
2.3991
2.40954
2.42047
2.43192
2.44394
2.45651
2.46965
2.48339
2.49775
2.51274
2.52838
2.54468
2.56168
2.5794
2.59774
2.61682
2.63654
2.65703
2.67813
2.69985
2.72211
2.74484
2.768
2.79142
2.81493
2.83839
2.86155
2.88425
2.90599
2.92633
2.94486
2.96038
2.97261
2.97996
2.98123
1.9107
1.90356
1.88846
1.87008
1.84751
1.82322
1.79854
1.77334
1.74836
1.72397
1.70012
1.67694
1.65448
1.63287
1.61219
1.59252
1.57384
1.55625
1.53971
1.52423
1.50975
1.4963
1.48388
1.47245
1.46197
1.45245
1.44385
1.43614
1.42928
1.42323
1.41795
1.4134
1.40955
1.40638
1.40381
1.40186
1.40053
1.39984
1.39972
1.40012
1.40105
1.40244
1.40426
1.40648
1.40906
1.41201
1.41533
1.41901
1.42306
1.42746
1.43215
1.43713
1.44235
1.44783
1.45357
1.45954
1.46574
1.47218
1.47885
1.48576
1.49285
1.50017
1.50774
1.51555
1.52364
1.532
1.54064
1.54958
1.55884
1.56842
1.57834
1.58862
1.59925
1.61026
1.62163
1.63335
1.64551
1.65815
1.67133
1.68497
1.69899
1.71344
1.72822
1.74332
1.75867
1.77419
1.78983
1.80549
1.82103
1.83634
1.85127
1.8657
1.87931
1.89176
1.90279
1.91159
1.91803
1.92078
1.9187
1.3674
1.35986
1.34591
1.32948
1.30983
1.28898
1.26807
1.24698
1.22635
1.20638
1.18713
1.1687
1.1513
1.13481
1.11924
1.10461
1.09086
1.07811
1.06627
1.05534
1.04528
1.03607
1.0277
1.02016
1.01339
1.00738
1.0021
0.997508
0.993581
0.990277
0.987547
0.985365
0.983723
0.982605
0.982021
0.981922
0.982277
0.983062
0.984239
0.985781
0.987678
0.989892
0.992403
0.995192
0.998232
1.00153
1.00507
1.00887
1.01291
1.01717
1.02161
1.02621
1.03095
1.03584
1.04087
1.04603
1.05131
1.05671
1.06224
1.0679
1.07365
1.07953
1.08555
1.0917
1.09802
1.1045
1.11114
1.11797
1.125
1.13224
1.1397
1.14736
1.15524
1.16336
1.17183
1.18066
1.18979
1.19924
1.209
1.21907
1.22937
1.23994
1.2507
1.26164
1.27268
1.28377
1.29485
1.30585
1.31666
1.32721
1.33737
1.34708
1.35609
1.36415
1.37106
1.3762
1.37943
1.37959
1.3758
1.03056
1.02334
1.01089
0.996489
0.979621
0.961952
0.94446
0.927051
0.91024
0.894153
0.878869
0.864432
0.850937
0.838335
0.826621
0.815827
0.805926
0.796867
0.78859
0.781071
0.774261
0.768145
0.762708
0.757922
0.753754
0.750178
0.747163
0.744683
0.742711
0.741221
0.740204
0.739633
0.739467
0.739688
0.740278
0.741206
0.742455
0.743997
0.745806
0.747864
0.750157
0.75266
0.755359
0.758238
0.761278
0.764475
0.767821
0.771303
0.774907
0.778607
0.782397
0.786265
0.790197
0.794193
0.798247
0.802352
0.80651
0.810716
0.814975
0.81929
0.823643
0.82806
0.832547
0.83711
0.841765
0.846516
0.851374
0.856348
0.861455
0.866696
0.872071
0.877568
0.883312
0.889334
0.895593
0.902087
0.908801
0.915745
0.922903
0.930279
0.937824
0.945568
0.953438
0.961425
0.969472
0.977533
0.985556
0.993499
1.00127
1.00883
1.01606
1.02293
1.02925
1.03479
1.03941
1.04253
1.04405
1.04296
1.0387
0.800253
0.793976
0.783457
0.771383
0.757442
0.742968
0.728811
0.714886
0.701602
0.689043
0.677257
0.666257
0.65609
0.646723
0.638137
0.630342
0.623273
0.616928
0.611237
0.606183
0.601713
0.597805
0.594436
0.591584
0.589216
0.587307
0.58583
0.584761
0.584078
0.583757
0.58378
0.584121
0.584755
0.585663
0.586824
0.588218
0.589828
0.591633
0.593613
0.595753
0.598039
0.600453
0.602983
0.605615
0.608332
0.611126
0.613985
0.616895
0.619844
0.622818
0.625819
0.628836
0.631861
0.634892
0.637925
0.640958
0.643992
0.647026
0.650064
0.653113
0.656162
0.659233
0.662332
0.665465
0.668648
0.671887
0.67519
0.678568
0.682032
0.68558
0.689206
0.693058
0.697101
0.701327
0.705728
0.710303
0.71505
0.719976
0.725072
0.730345
0.735758
0.741338
0.747029
0.752825
0.758683
0.764567
0.77044
0.776271
0.78199
0.787557
0.792891
0.79797
0.802632
0.806676
0.809985
0.812057
0.812811
0.811439
0.807513
0.635637
0.630637
0.622205
0.612534
0.601457
0.590005
0.578907
0.56809
0.557882
0.548339
0.53947
0.531273
0.523775
0.516945
0.510759
0.505216
0.500255
0.495885
0.492042
0.488716
0.485864
0.483474
0.481505
0.479936
0.478736
0.477885
0.477359
0.477137
0.477199
0.477524
0.478093
0.478887
0.479884
0.481068
0.482421
0.483926
0.48557
0.487335
0.489205
0.491166
0.493207
0.495312
0.49747
0.499669
0.501894
0.504137
0.506387
0.508631
0.510866
0.513084
0.515283
0.517458
0.519601
0.521712
0.523791
0.525836
0.52785
0.529835
0.531794
0.533737
0.535658
0.537574
0.539493
0.541424
0.543378
0.545363
0.54739
0.549464
0.551593
0.553777
0.556129
0.55864
0.561287
0.564076
0.567008
0.570086
0.573313
0.576697
0.58023
0.583925
0.587752
0.591739
0.595844
0.600063
0.604365
0.608724
0.613111
0.617506
0.621851
0.626117
0.630238
0.634196
0.637859
0.641049
0.643671
0.645303
0.645897
0.644797
0.641626
0.515522
0.511855
0.505404
0.497946
0.489432
0.480614
0.47211
0.463861
0.456123
0.448941
0.442323
0.436262
0.430771
0.425824
0.421398
0.417487
0.414041
0.411068
0.408517
0.406378
0.404619
0.403223
0.40216
0.401399
0.400916
0.400693
0.400709
0.400947
0.401388
0.402015
0.402811
0.403759
0.404843
0.406047
0.407357
0.408759
0.410241
0.411788
0.413386
0.415024
0.416691
0.418375
0.420065
0.421752
0.423423
0.425071
0.426688
0.428268
0.429807
0.431302
0.43275
0.434148
0.435492
0.436782
0.43802
0.439207
0.440346
0.441441
0.442497
0.443524
0.44452
0.4455
0.446472
0.447446
0.448433
0.44944
0.450478
0.451553
0.452669
0.453897
0.45527
0.45676
0.458367
0.460099
0.461964
0.463967
0.466112
0.468407
0.47085
0.473451
0.476188
0.479088
0.482118
0.48528
0.488548
0.491903
0.495325
0.498798
0.502277
0.505737
0.509124
0.512425
0.51553
0.518288
0.520623
0.522189
0.522952
0.522374
0.520118
0.426668
0.424209
0.41946
0.413833
0.407354
0.400619
0.394138
0.387867
0.382009
0.376605
0.371665
0.367183
0.363164
0.359587
0.356429
0.353686
0.351315
0.349324
0.347671
0.346345
0.34532
0.344563
0.344052
0.343766
0.343686
0.343795
0.344077
0.344516
0.345096
0.345802
0.346619
0.347533
0.348531
0.349599
0.350725
0.351897
0.353104
0.354334
0.355576
0.356819
0.358055
0.359273
0.360465
0.361623
0.36274
0.363809
0.364825
0.365785
0.366687
0.367529
0.36831
0.369028
0.369683
0.370277
0.370812
0.37129
0.371717
0.372097
0.372438
0.372748
0.373029
0.373296
0.373556
0.373819
0.374095
0.374394
0.374725
0.375097
0.375528
0.376108
0.376797
0.377593
0.378502
0.379535
0.380701
0.382006
0.383456
0.385058
0.386812
0.388727
0.390786
0.393011
0.395378
0.397888
0.400522
0.403266
0.406105
0.409026
0.411994
0.414988
0.417962
0.420905
0.423728
0.426307
0.42858
0.430266
0.431335
0.431335
0.429969
0.359925
0.358373
0.35492
0.350688
0.345756
0.34061
0.33566
0.330882
0.326442
0.322376
0.318689
0.315375
0.312433
0.309849
0.307603
0.30569
0.304076
0.302765
0.301724
0.300941
0.300372
0.299992
0.299786
0.299745
0.299853
0.300096
0.300458
0.300928
0.30149
0.302133
0.302842
0.303607
0.304416
0.305258
0.306122
0.306998
0.307878
0.30875
0.309606
0.310436
0.311235
0.311994
0.312706
0.313368
0.313972
0.314516
0.314998
0.315414
0.315765
0.31605
0.31627
0.316426
0.316518
0.316551
0.316528
0.316454
0.316334
0.316174
0.315982
0.315767
0.315535
0.315298
0.315065
0.314844
0.314647
0.314482
0.314358
0.314281
0.314338
0.31451
0.314788
0.315178
0.315685
0.316321
0.317092
0.318004
0.319064
0.320279
0.321649
0.323183
0.324867
0.326719
0.328717
0.330861
0.333137
0.335534
0.338039
0.340642
0.343316
0.346045
0.348793
0.351544
0.354229
0.356748
0.35905
0.360905
0.362282
0.362803
0.362185
0.308721
0.30781
0.305313
0.302135
0.298397
0.294473
0.290692
0.287049
0.283678
0.280613
0.277853
0.275394
0.273236
0.271366
0.269767
0.268435
0.267344
0.266494
0.265841
0.265368
0.265039
0.264842
0.264772
0.264819
0.26497
0.265213
0.265536
0.265926
0.266372
0.266864
0.26739
0.267941
0.268507
0.269079
0.269647
0.270204
0.270743
0.271255
0.271733
0.27217
0.272561
0.2729
0.273183
0.273407
0.273568
0.273665
0.273698
0.273666
0.273569
0.273409
0.273188
0.272908
0.272572
0.272186
0.271755
0.271285
0.270781
0.270252
0.269704
0.269147
0.268588
0.268039
0.26751
0.267009
0.266547
0.266133
0.265777
0.265503
0.265367
0.265339
0.26542
0.26562
0.265944
0.266402
0.266998
0.267734
0.268616
0.269649
0.270835
0.272182
0.27368
0.275344
0.27715
0.279099
0.281178
0.283379
0.285691
0.288105
0.290598
0.293157
0.295751
0.298374
0.300968
0.303451
0.305779
0.307762
0.309363
0.310259
0.310191
0.268569
0.268138
0.266375
0.264008
0.261186
0.258193
0.255299
0.252511
0.24994
0.247614
0.245534
0.243697
0.242101
0.240735
0.23959
0.238653
0.237893
0.237303
0.236845
0.236506
0.236269
0.236129
0.236077
0.236106
0.236204
0.23636
0.236564
0.236807
0.237079
0.237371
0.237673
0.237978
0.238277
0.238564
0.238831
0.239072
0.23928
0.239451
0.239579
0.239659
0.239687
0.23966
0.239576
0.239432
0.239228
0.238964
0.238642
0.238261
0.237826
0.237338
0.2368
0.236216
0.235589
0.234927
0.234236
0.233522
0.232793
0.232056
0.231318
0.230588
0.229874
0.229186
0.228533
0.227924
0.227369
0.226876
0.226454
0.226164
0.225986
0.225913
0.22595
0.226105
0.226386
0.226799
0.227353
0.22804
0.228864
0.229831
0.230939
0.232195
0.23359
0.235135
0.236815
0.238631
0.240574
0.242636
0.244807
0.247082
0.249439
0.251868
0.254344
0.256864
0.259382
0.261828
0.264161
0.266221
0.267964
0.269113
0.269439
0.23648
0.236404
0.235199
0.233452
0.231324
0.229035
0.226808
0.224658
0.222678
0.220894
0.219306
0.217911
0.216712
0.21569
0.214827
0.214111
0.213511
0.213023
0.212626
0.212314
0.212075
0.211903
0.211791
0.211731
0.211713
0.211728
0.211768
0.211825
0.211892
0.211961
0.212025
0.212078
0.212112
0.212124
0.212106
0.212055
0.211966
0.211835
0.21166
0.211438
0.211166
0.210843
0.210469
0.210042
0.209564
0.209035
0.208459
0.207839
0.207177
0.206478
0.205746
0.204984
0.204198
0.203393
0.202577
0.201756
0.200937
0.200128
0.199336
0.198569
0.197835
0.19714
0.196493
0.195901
0.195374
0.19492
0.194556
0.194324
0.194196
0.194168
0.194245
0.194432
0.194736
0.19516
0.195707
0.196378
0.197177
0.198106
0.199166
0.20036
0.20168
0.203134
0.204717
0.206429
0.208264
0.210214
0.212273
0.214434
0.216681
0.219005
0.221388
0.223825
0.226277
0.228685
0.231009
0.233112
0.234947
0.236277
0.236898
0.210354
0.210537
0.209751
0.208472
0.206864
0.205101
0.20337
0.201689
0.20014
0.198743
0.197505
0.19641
0.195453
0.194619
0.193886
0.193249
0.19269
0.192211
0.191796
0.191443
0.19114
0.190881
0.19066
0.19047
0.190302
0.190149
0.190006
0.189866
0.189723
0.189572
0.189408
0.189225
0.189019
0.188787
0.188523
0.188226
0.187892
0.187519
0.187106
0.186653
0.186158
0.185622
0.185045
0.184429
0.183774
0.183084
0.18236
0.181607
0.180829
0.18003
0.179215
0.178389
0.177556
0.176723
0.175894
0.175075
0.174272
0.173491
0.172739
0.172024
0.171354
0.170736
0.17017
0.169664
0.169223
0.168854
0.168599
0.168441
0.168374
0.168399
0.168523
0.168748
0.169078
0.169516
0.170062
0.170724
0.171503
0.172404
0.173425
0.174571
0.175836
0.177228
0.178742
0.180378
0.182131
0.183996
0.185965
0.188036
0.190193
0.192431
0.194732
0.197094
0.199482
0.201844
0.204143
0.206261
0.208148
0.209602
0.210436
0.188696
0.189062
0.188585
0.187652
0.186428
0.185052
0.183681
0.182337
0.181095
0.179961
0.178931
0.177996
0.177144
0.176372
0.175667
0.17503
0.174447
0.173922
0.173443
0.173006
0.172603
0.172227
0.171873
0.171536
0.171209
0.170888
0.170567
0.170241
0.169906
0.169559
0.169197
0.168816
0.168413
0.167985
0.167531
0.167049
0.166537
0.165995
0.165421
0.164817
0.164183
0.16352
0.162831
0.162116
0.161378
0.160621
0.159847
0.159058
0.158259
0.157452
0.156643
0.155837
0.155037
0.154251
0.153485
0.152736
0.152011
0.151315
0.150652
0.150028
0.149449
0.148919
0.148443
0.148026
0.147676
0.147398
0.147224
0.147128
0.147112
0.147184
0.147345
0.147602
0.147955
0.148409
0.148966
0.14963
0.150402
0.151288
0.152285
0.153398
0.154624
0.155968
0.157428
0.159003
0.160688
0.16248
0.164374
0.166366
0.168444
0.170602
0.172827
0.175115
0.177436
0.179744
0.182004
0.184113
0.186021
0.187551
0.188533
0.170421
0.170911
0.170655
0.169973
0.169024
0.167923
0.166808
0.165693
0.164632
0.163635
0.162692
0.161806
0.160975
0.160197
0.159468
0.158787
0.158146
0.157547
0.15698
0.156441
0.155924
0.155424
0.154937
0.154459
0.153986
0.153514
0.15304
0.15256
0.152071
0.151571
0.151059
0.150531
0.149987
0.149426
0.148846
0.148247
0.14763
0.146993
0.146338
0.145663
0.144971
0.144262
0.143538
0.142801
0.142055
0.141303
0.140549
0.139794
0.139037
0.138283
0.137534
0.136794
0.136067
0.135357
0.134666
0.133998
0.133357
0.132746
0.132171
0.131634
0.13114
0.13069
0.130294
0.129955
0.129677
0.129485
0.129374
0.129336
0.129374
0.129492
0.129695
0.129985
0.130366
0.13084
0.131411
0.13208
0.132851
0.133726
0.134705
0.135791
0.136983
0.138286
0.139698
0.141217
0.142842
0.144568
0.146392
0.148309
0.150312
0.152393
0.154543
0.156754
0.159004
0.16125
0.163457
0.165538
0.167441
0.16901
0.170086
0.154735
0.155302
0.155197
0.154688
0.15393
0.153014
0.152049
0.151052
0.150065
0.14911
0.148185
0.147296
0.146444
0.14563
0.144852
0.144111
0.143398
0.142718
0.14206
0.141424
0.140802
0.140192
0.139591
0.138997
0.138407
0.13782
0.137233
0.136644
0.136051
0.135453
0.134847
0.134233
0.13361
0.132978
0.132336
0.131685
0.131025
0.130357
0.129684
0.129003
0.128314
0.127617
0.126914
0.126206
0.125497
0.124787
0.124079
0.123374
0.122673
0.121981
0.121298
0.120629
0.119974
0.119336
0.118716
0.118122
0.117557
0.117024
0.116526
0.116068
0.115652
0.115283
0.114966
0.114704
0.114501
0.114382
0.114331
0.114348
0.114436
0.114599
0.114839
0.115161
0.115567
0.116059
0.116641
0.117315
0.118082
0.118945
0.119905
0.120965
0.122124
0.123386
0.12475
0.126216
0.127781
0.129443
0.131198
0.133043
0.13497
0.136974
0.139045
0.141178
0.143351
0.145527
0.147672
0.149708
0.151583
0.15316
0.154287
0.141053
0.14166
0.14165
0.141251
0.140601
0.139779
0.138873
0.137914
0.136946
0.135992
0.135056
0.134145
0.13326
0.132403
0.131574
0.130773
0.129995
0.129244
0.128513
0.1278
0.127101
0.126412
0.125733
0.125061
0.124396
0.123736
0.123081
0.12243
0.121782
0.121137
0.120491
0.119844
0.119195
0.118543
0.117889
0.117232
0.116573
0.115912
0.115249
0.114583
0.113916
0.113248
0.112579
0.111912
0.111247
0.110584
0.109924
0.109269
0.108624
0.10799
0.10737
0.106765
0.106178
0.10561
0.105066
0.104548
0.10406
0.103605
0.103185
0.102804
0.102465
0.102172
0.101928
0.101737
0.101606
0.101547
0.101549
0.101614
0.101746
0.101946
0.102218
0.102566
0.10299
0.103495
0.104083
0.104755
0.105513
0.106361
0.107299
0.108329
0.109452
0.110671
0.111986
0.113396
0.1149
0.116497
0.118183
0.119954
0.121804
0.123729
0.125719
0.12777
0.129861
0.131959
0.134032
0.136008
0.137839
0.139396
0.14054
0.128944
0.129559
0.12959
0.129237
0.128626
0.127832
0.126945
0.125994
0.125027
0.124064
0.123113
0.12218
0.121269
0.12038
0.119514
0.118671
0.117849
0.11705
0.116272
0.115513
0.11477
0.114039
0.113319
0.112609
0.111908
0.111215
0.110531
0.109854
0.109183
0.108518
0.107857
0.107199
0.106545
0.105894
0.105246
0.104599
0.103955
0.103311
0.102668
0.102025
0.101386
0.10075
0.100119
0.0994928
0.0988725
0.0982588
0.097653
0.0970569
0.0964734
0.0959038
0.0953501
0.094814
0.0942974
0.0938027
0.0933323
0.0928892
0.0924759
0.0920946
0.091748
0.0914389
0.0911701
0.0909445
0.0907649
0.0906334
0.0905671
0.0905584
0.0906054
0.0907104
0.0908761
0.0911055
0.091401
0.0917655
0.0922013
0.092711
0.0932968
0.0939608
0.0947047
0.095531
0.096441
0.0974371
0.0985196
0.0996921
0.100954
0.102306
0.103748
0.105276
0.10689
0.108585
0.110356
0.112199
0.114105
0.11607
0.118074
0.120089
0.122081
0.123987
0.125757
0.127274
0.128405
0.118092
0.118681
0.118708
0.118355
0.117751
0.116967
0.116087
0.115144
0.114179
0.113214
0.112258
0.111315
0.110392
0.109491
0.108609
0.107748
0.106906
0.106085
0.105284
0.1045
0.103731
0.102975
0.102233
0.101503
0.100785
0.100079
0.0993827
0.0986961
0.0980172
0.0973452
0.0966816
0.096026
0.0953779
0.0947368
0.0941022
0.0934739
0.0928512
0.0922337
0.0916213
0.0910151
0.0904157
0.0898235
0.089239
0.0886628
0.0880956
0.0875382
0.086992
0.0864583
0.085939
0.0854353
0.0849489
0.0844812
0.0840339
0.0836092
0.083209
0.0828355
0.0824909
0.0821771
0.0818964
0.0816512
0.0814441
0.0812773
0.0811535
0.081075
0.0810562
0.0810875
0.0811695
0.0813047
0.0814956
0.0817447
0.0820545
0.0824276
0.0828661
0.0833726
0.0839492
0.0845978
0.0853204
0.0861193
0.0869959
0.0879525
0.0889898
0.0901113
0.0913168
0.0926073
0.0939824
0.0954405
0.0969794
0.0985962
0.100286
0.102043
0.103862
0.105737
0.107652
0.109577
0.111483
0.113309
0.115005
0.116465
0.11756
0.108274
0.108814
0.108816
0.108454
0.10785
0.107075
0.106207
0.105278
0.104326
0.103371
0.102422
0.101483
0.100558
0.0996508
0.0987602
0.0978893
0.0970363
0.0962039
0.095389
0.0945901
0.093806
0.0930374
0.0922839
0.0915453
0.090821
0.0901107
0.0894137
0.0887293
0.0880565
0.0873952
0.0867458
0.0861078
0.0854806
0.0848638
0.0842569
0.0836594
0.0830709
0.0824912
0.0819204
0.0813588
0.0808069
0.0802647
0.0797326
0.0792112
0.0787009
0.0782027
0.0777174
0.0772461
0.0767902
0.0763507
0.0759289
0.0755261
0.0751437
0.0747835
0.0744471
0.0741362
0.0738526
0.0735981
0.0733746
0.0731842
0.0730289
0.0729111
0.072833
0.0727975
0.0728142
0.0728756
0.0729832
0.0731392
0.0733461
0.073606
0.0739215
0.0742948
0.0747281
0.0752238
0.0757841
0.0764107
0.0771056
0.0778712
0.078709
0.0796211
0.0806087
0.0816749
0.0828202
0.0840457
0.0853513
0.0867358
0.0881972
0.0897328
0.0913377
0.0930077
0.094737
0.0965197
0.0983406
0.100173
0.101986
0.103726
0.10534
0.106731
0.107773
0.0993422
0.099835
0.0998137
0.0994435
0.0988448
0.0980827
0.0972289
0.0963143
0.0953754
0.0944312
0.0934892
0.0925547
0.0916304
0.0907184
0.0898224
0.0889453
0.0880862
0.0872479
0.0864281
0.0856267
0.0848428
0.0840765
0.0833276
0.082596
0.081881
0.0811827
0.0805003
0.0798336
0.0791817
0.0785446
0.0779221
0.0773138
0.0767189
0.0761369
0.0755674
0.0750098
0.0744638
0.0739292
0.0734058
0.0728938
0.0723932
0.0719041
0.0714267
0.0709613
0.0705083
0.0700685
0.0696425
0.069231
0.0688351
0.0684555
0.0680934
0.0677499
0.0674261
0.0671235
0.0668433
0.0665869
0.066356
0.0661519
0.0659764
0.0658312
0.0657181
0.0656389
0.0655954
0.0655949
0.0656372
0.0657196
0.065844
0.0660124
0.0662268
0.0664897
0.0668031
0.0671693
0.0675904
0.0680687
0.0686063
0.069205
0.0698669
0.0705941
0.0713882
0.0722516
0.0731853
0.0741927
0.0752744
0.0764318
0.077665
0.0789732
0.0803546
0.0818065
0.0833246
0.0849049
0.086542
0.08823
0.0899548
0.0916909
0.093409
0.0950568
0.0965844
0.0978988
0.0988792
0.0911844
0.0916363
0.0915958
0.0912215
0.0906284
0.0898787
0.0890375
0.0881353
0.0872069
0.086271
0.0853353
0.0844055
0.0834855
0.0825784
0.0816875
0.0808157
0.079963
0.0791321
0.0783216
0.0775318
0.0767619
0.0760118
0.0752811
0.0745698
0.0738774
0.0732038
0.0725486
0.0719114
0.0712914
0.0706886
0.0701024
0.0695323
0.0689775
0.0684375
0.0679116
0.0673995
0.0669006
0.0664146
0.0659413
0.0654806
0.0650323
0.0645963
0.0641729
0.0637621
0.0633642
0.0629798
0.0626092
0.0622531
0.0619121
0.0615869
0.0612783
0.0609874
0.0607151
0.0604623
0.0602304
0.0600204
0.0598336
0.0596714
0.0595351
0.0594264
0.0593466
0.0592975
0.0592805
0.0593043
0.0593639
0.0594595
0.0595931
0.0597664
0.0599815
0.0602405
0.0605453
0.0608984
0.0613015
0.061757
0.0622668
0.0628329
0.0634572
0.0641419
0.0648887
0.0656996
0.0665764
0.067522
0.0685373
0.0696241
0.0707826
0.0720122
0.0733115
0.0746778
0.0761072
0.077596
0.0791392
0.0807308
0.0823578
0.0839959
0.0856164
0.0871705
0.0886086
0.0898439
0.0907605
0.0837119
0.0841232
0.084064
0.0836865
0.0830981
0.0823597
0.0815315
0.0806441
0.0797304
0.0788081
0.0778858
0.0769694
0.0760634
0.0751713
0.0742963
0.0734413
0.0726069
0.0717958
0.0710071
0.0702411
0.069497
0.0687745
0.0680732
0.0673931
0.0667336
0.0660947
0.0654759
0.0648767
0.0642965
0.0637348
0.063191
0.0626645
0.0621545
0.0616603
0.0611814
0.0607171
0.0602669
0.0598304
0.0594072
0.058997
0.0585996
0.0582148
0.0578427
0.0574832
0.0571366
0.056803
0.0564829
0.0561765
0.0558845
0.0556074
0.0553458
0.0551005
0.0548722
0.0546619
0.0544705
0.054299
0.0541485
0.0540202
0.0539153
0.0538351
0.0537811
0.0537547
0.0537573
0.0537961
0.0538662
0.0539686
0.0541051
0.0542774
0.0544874
0.0547371
0.0550285
0.0553636
0.0557443
0.0561728
0.0566511
0.057181
0.0577644
0.0584036
0.0591002
0.0598564
0.0606739
0.0615555
0.0625026
0.063517
0.0645991
0.0657486
0.0669642
0.0682436
0.069583
0.070979
0.072427
0.0739212
0.0754494
0.0769885
0.0785108
0.0799702
0.0813183
0.0824741
0.083327
0.0768588
0.0772303
0.0771539
0.0767743
0.0761924
0.0754679
0.0746563
0.0737885
0.072895
0.0719934
0.0710926
0.0701987
0.0693162
0.0684491
0.0676001
0.0667725
0.0659672
0.0651865
0.06443
0.0636977
0.0629889
0.0623032
0.06164
0.0609991
0.0603801
0.0597828
0.0592066
0.0586511
0.0581153
0.0575988
0.0571008
0.0566206
0.0561573
0.0557104
0.0552791
0.0548626
0.0544605
0.0540722
0.0536972
0.0533351
0.0529857
0.0526486
0.0523238
0.0520112
0.0517109
0.0514231
0.0511478
0.0508853
0.0506362
0.0504007
0.0501794
0.0499729
0.0497818
0.049607
0.0494491
0.0493091
0.0491879
0.0490865
0.0490061
0.0489478
0.0489129
0.0489028
0.0489189
0.0489664
0.0490415
0.0491455
0.0492801
0.0494468
0.0496475
0.0498839
0.0501581
0.0504718
0.050827
0.0512257
0.0516698
0.0521612
0.0527018
0.0532936
0.0539384
0.0546383
0.0553952
0.0562117
0.0570897
0.0580306
0.0590355
0.060104
0.0612352
0.0624269
0.0636756
0.0649784
0.0663307
0.0677271
0.0691561
0.0705961
0.0720201
0.0733851
0.074644
0.0757212
0.0765116
0.0705749
0.0709084
0.0708174
0.0704382
0.0698664
0.0691597
0.0683699
0.0675273
0.0666607
0.0657874
0.0649162
0.0640533
0.0632034
0.0623701
0.0615564
0.0607652
0.0599977
0.0592561
0.0585399
0.057849
0.0571826
0.0565402
0.0559211
0.055325
0.0547514
0.0541999
0.05367
0.0531609
0.0526719
0.0522021
0.0517509
0.0513175
0.050901
0.0505007
0.0501157
0.0497454
0.0493892
0.0490463
0.0487164
0.0483989
0.0480935
0.0477999
0.0475178
0.0472473
0.0469882
0.0467405
0.0465044
0.0462801
0.0460678
0.0458679
0.0456807
0.0455069
0.0453468
0.0452012
0.0450707
0.0449561
0.0448582
0.0447779
0.0447162
0.0446741
0.0446529
0.0446537
0.0446788
0.0447303
0.0448063
0.0449082
0.0450373
0.0451951
0.0453835
0.045604
0.0458584
0.0461485
0.0464763
0.0468435
0.047252
0.0477038
0.0482005
0.0487442
0.0493367
0.0499799
0.0506758
0.0514272
0.0522358
0.0531034
0.054031
0.0550186
0.0560654
0.0571694
0.0583276
0.0595372
0.060794
0.0620929
0.0634232
0.0647645
0.0660911
0.0673625
0.0685335
0.0695337
0.0702634
0.0648216
0.0651195
0.0650171
0.0646419
0.0640846
0.0634004
0.0626379
0.0618266
0.0609937
0.0601558
0.0593217
0.0584976
0.0576878
0.056896
0.0561248
0.0553773
0.0546544
0.0539582
0.0532881
0.0526439
0.0520247
0.0514298
0.0508585
0.0503102
0.0497845
0.0492808
0.0487984
0.0483366
0.0478946
0.0474714
0.0470664
0.0466785
0.0463071
0.0459512
0.0456101
0.0452831
0.0449694
0.0446685
0.0443797
0.0441027
0.0438369
0.0435821
0.043338
0.0431045
0.0428814
0.0426687
0.0424664
0.0422747
0.0420938
0.041924
0.0417655
0.0416188
0.0414844
0.0413627
0.0412544
0.0411601
0.0410806
0.0410166
0.040969
0.0409388
0.0409268
0.0409342
0.040965
0.0410173
0.0410914
0.0411883
0.0413095
0.0414564
0.0416305
0.0418335
0.0420668
0.0423324
0.0426319
0.0429671
0.0433397
0.0437516
0.0442045
0.0447003
0.0452408
0.0458279
0.0464636
0.0471506
0.0478907
0.0486858
0.049537
0.0504447
0.051408
0.0524253
0.0534938
0.054611
0.0557733
0.0569756
0.0582082
0.0594521
0.0606825
0.0618619
0.0629469
0.0638721
0.0645434
0.0595676
0.0598327
0.0597225
0.0593554
0.058817
0.0581603
0.0574305
0.0566562
0.055863
0.0550668
0.0542762
0.0534971
0.0527336
0.0519889
0.0512659
0.0505671
0.0498936
0.0492469
0.0486265
0.0480321
0.0474627
0.0469174
0.0463954
0.045896
0.0454187
0.0449628
0.0445275
0.0441122
0.0437158
0.0433375
0.0429765
0.0426319
0.0423028
0.0419883
0.0416878
0.0414005
0.0411256
0.0408625
0.0406108
0.0403698
0.0401391
0.0399185
0.0397076
0.0395063
0.0393143
0.0391317
0.0389584
0.0387945
0.0386402
0.0384956
0.0383611
0.038237
0.0381236
0.0380215
0.0379311
0.037853
0.0377879
0.0377365
0.0376996
0.0376779
0.0376724
0.0376841
0.0377166
0.0377675
0.0378375
0.0379278
0.0380397
0.0381745
0.0383335
0.0385182
0.0387302
0.038971
0.0392424
0.0395459
0.0398832
0.040256
0.0406661
0.0411152
0.0416049
0.0421373
0.0427144
0.0433386
0.0440119
0.0447362
0.0455129
0.0463423
0.0472239
0.0481562
0.0491368
0.0501634
0.0512328
0.0523403
0.053477
0.0546251
0.0557614
0.0568507
0.057852
0.0587045
0.0593199
0.054786
0.0550214
0.0549068
0.0545516
0.0540365
0.0534118
0.0527195
0.0519872
0.0512387
0.0504892
0.0497469
0.0490174
0.0483044
0.0476109
0.0469396
0.0462926
0.0456711
0.0450762
0.0445073
0.0439638
0.0434448
0.0429494
0.0424764
0.0420253
0.0415953
0.0411858
0.0407959
0.0404248
0.0400717
0.0397356
0.0394157
0.039111
0.0388209
0.0385444
0.0382807
0.0380292
0.0377891
0.0375599
0.037341
0.0371318
0.036932
0.0367412
0.0365592
0.0363856
0.0362205
0.0360636
0.035915
0.0357747
0.0356428
0.0355194
0.0354049
0.0352995
0.0352035
0.0351173
0.0350414
0.0349763
0.0349226
0.0348809
0.0348519
0.0348364
0.0348351
0.0348491
0.0348811
0.0349291
0.034994
0.0350767
0.0351786
0.0353007
0.0354444
0.035611
0.0358019
0.0360186
0.0362625
0.0365353
0.0368386
0.0371738
0.0375427
0.0379469
0.0383881
0.038868
0.0393888
0.0399527
0.0405617
0.0412179
0.0419226
0.0426763
0.0434787
0.0443285
0.0452238
0.0461623
0.0471413
0.0481565
0.0491997
0.0502546
0.0512991
0.0523009
0.0532211
0.0540035
0.0545658
0.0504516
0.0506606
0.0505448
0.0502051
0.049717
0.049128
0.048477
0.0477904
0.0470903
0.0463909
0.0457002
0.0450232
0.0443633
0.0437232
0.0431053
0.0425115
0.0419427
0.0414
0.0408824
0.0403895
0.03992
0.0394731
0.0390476
0.0386429
0.038258
0.0378924
0.0375452
0.0372156
0.0369027
0.0366055
0.0363233
0.0360553
0.0358005
0.0355581
0.0353276
0.0351081
0.0348989
0.0346996
0.0345095
0.0343282
0.0341553
0.0339905
0.0338334
0.0336838
0.0335416
0.0334068
0.0332792
0.0331588
0.0330458
0.0329403
0.0328425
0.0327527
0.032671
0.032598
0.0325339
0.0324792
0.0324345
0.0324004
0.0323773
0.0323661
0.0323675
0.0323823
0.0324126
0.0324569
0.032516
0.0325909
0.0326826
0.0327922
0.0329209
0.0330699
0.0332405
0.033434
0.0336519
0.0338956
0.0341665
0.0344661
0.034796
0.0351577
0.0355528
0.0359831
0.0364504
0.0369571
0.0375051
0.0380964
0.0387324
0.0394138
0.0401403
0.0409111
0.0417242
0.0425779
0.0434697
0.0443959
0.0453488
0.0463134
0.0472694
0.0481866
0.0490287
0.0497441
0.0502561
0.0465401
0.0467255
0.0466114
0.04629
0.0458317
0.0452811
0.0446741
0.0440356
0.0433862
0.0427391
0.0421016
0.0414783
0.0408724
0.0402862
0.0397218
0.0391808
0.0386642
0.0381724
0.0377049
0.0372607
0.0368388
0.0364382
0.0360577
0.0356966
0.035354
0.0350293
0.0347217
0.0344302
0.0341541
0.0338924
0.0336445
0.0334093
0.0331863
0.0329745
0.0327734
0.0325823
0.0324004
0.0322273
0.0320625
0.0319056
0.031756
0.0316136