/*--------------------------------*- C++ -*----------------------------------*\
| =========                 |                                                 |
| \\      /  F ield         | OpenFOAM: The Open Source CFD Toolbox           |
|  \\    /   O peration     | Version:  2212                                  |
|   \\  /    A nd           | Website:  www.openfoam.com                      |
|    \\/     M anipulation  |                                                 |
\*---------------------------------------------------------------------------*/
FoamFile
{
    version     2.0;
    format      ascii;
    arch        "LSB;label=32;scalar=64";
    class       volScalarField;
    location    "2";
    object      p;
}
// * * * * * * * * * * * * * * * * * * * * * * * * * * * * * * * * * * * * * //

dimensions      [0 2 -2 0 0 0 0];

internalField   nonuniform List<scalar> 
14751
(
-9.2192e-05
-8.97509e-05
-8.67163e-05
-8.38497e-05
-8.0782e-05
-7.76893e-05
-7.45978e-05
-7.1501e-05
-6.84545e-05
-6.54718e-05
-6.25861e-05
-5.98102e-05
-5.71717e-05
-5.46849e-05
-5.23595e-05
-5.0216e-05
-4.82489e-05
-4.64773e-05
-4.48931e-05
-4.35068e-05
-4.23109e-05
-4.13064e-05
-4.04875e-05
-3.98536e-05
-3.93967e-05
-3.91125e-05
-3.89949e-05
-3.90369e-05
-3.92326e-05
-3.9575e-05
-4.0057e-05
-4.06721e-05
-4.14133e-05
-4.22743e-05
-4.32484e-05
-4.4328e-05
-4.55084e-05
-4.67823e-05
-4.81443e-05
-4.95864e-05
-5.11047e-05
-5.26926e-05
-5.43436e-05
-5.60539e-05
-5.78158e-05
-5.9625e-05
-6.14762e-05
-6.33639e-05
-6.52835e-05
-6.72282e-05
-6.91918e-05
-7.11701e-05
-7.31565e-05
-7.51463e-05
-7.71342e-05
-7.91144e-05
-8.10824e-05
-8.30323e-05
-8.49583e-05
-8.68592e-05
-8.8726e-05
-9.05553e-05
-9.23428e-05
-9.40821e-05
-9.57714e-05
-9.7405e-05
-9.89798e-05
-0.00010049
-0.000101934
-0.000103308
-0.000104608
-0.000105831
-0.000106974
-0.000108034
-0.000109008
-0.000109893
-0.000110686
-0.000111384
-0.000111982
-0.000112481
-0.000112868
-0.000113149
-0.000113311
-0.000113352
-0.000113265
-0.000113045
-0.000112681
-0.00011217
-0.000111501
-0.000110672
-0.000109662
-0.000108481
-0.000107117
-0.000105548
-0.000103822
-0.000101869
-9.97327e-05
-9.74186e-05
-9.52008e-05
-9.21925e-05
-8.97513e-05
-8.67168e-05
-8.38503e-05
-8.07827e-05
-7.76901e-05
-7.45987e-05
-7.15019e-05
-6.84555e-05
-6.54728e-05
-6.25872e-05
-5.98112e-05
-5.71728e-05
-5.46861e-05
-5.23607e-05
-5.02172e-05
-4.82502e-05
-4.64787e-05
-4.48945e-05
-4.35083e-05
-4.23124e-05
-4.13079e-05
-4.04891e-05
-3.98551e-05
-3.93981e-05
-3.91139e-05
-3.89963e-05
-3.90382e-05
-3.92339e-05
-3.95761e-05
-4.00581e-05
-4.06731e-05
-4.14143e-05
-4.22751e-05
-4.32492e-05
-4.43286e-05
-4.55089e-05
-4.67827e-05
-4.81446e-05
-4.95867e-05
-5.11049e-05
-5.26927e-05
-5.43436e-05
-5.60538e-05
-5.78156e-05
-5.96247e-05
-6.14758e-05
-6.33635e-05
-6.5283e-05
-6.72276e-05
-6.91911e-05
-7.11694e-05
-7.31557e-05
-7.51455e-05
-7.71332e-05
-7.91134e-05
-8.10814e-05
-8.30312e-05
-8.49572e-05
-8.6858e-05
-8.87248e-05
-9.05539e-05
-9.23415e-05
-9.40808e-05
-9.577e-05
-9.74035e-05
-9.89783e-05
-0.000100489
-0.000101933
-0.000103307
-0.000104606
-0.000105829
-0.000106972
-0.000108032
-0.000109006
-0.000109892
-0.000110684
-0.000111383
-0.00011198
-0.00011248
-0.000112867
-0.000113148
-0.000113309
-0.000113351
-0.000113264
-0.000113044
-0.00011268
-0.000112169
-0.0001115
-0.000110671
-0.000109662
-0.00010848
-0.000107117
-0.000105548
-0.000103821
-0.000101869
-9.97327e-05
-9.74186e-05
-9.52009e-05
-9.21927e-05
-8.97523e-05
-8.67179e-05
-8.38519e-05
-8.07845e-05
-7.76919e-05
-7.46003e-05
-7.15034e-05
-6.84567e-05
-6.54738e-05
-6.25881e-05
-5.98121e-05
-5.71736e-05
-5.46867e-05
-5.23613e-05
-5.02179e-05
-4.82509e-05
-4.64795e-05
-4.48955e-05
-4.35094e-05
-4.23136e-05
-4.13092e-05
-4.04905e-05
-3.98565e-05
-3.93996e-05
-3.91153e-05
-3.89977e-05
-3.90395e-05
-3.92352e-05
-3.95774e-05
-4.00592e-05
-4.06742e-05
-4.14152e-05
-4.2276e-05
-4.32499e-05
-4.43293e-05
-4.55094e-05
-4.67831e-05
-4.81449e-05
-4.95869e-05
-5.11049e-05
-5.26926e-05
-5.43434e-05
-5.60535e-05
-5.78152e-05
-5.96242e-05
-6.14752e-05
-6.33627e-05
-6.52822e-05
-6.72267e-05
-6.91901e-05
-7.11683e-05
-7.31545e-05
-7.51442e-05
-7.71318e-05
-7.91119e-05
-8.10799e-05
-8.30296e-05
-8.49555e-05
-8.68563e-05
-8.87229e-05
-9.05521e-05
-9.23396e-05
-9.40788e-05
-9.5768e-05
-9.74015e-05
-9.89762e-05
-0.000100487
-0.000101931
-0.000103304
-0.000104604
-0.000105827
-0.00010697
-0.00010803
-0.000109004
-0.000109889
-0.000110682
-0.000111381
-0.000111978
-0.000112478
-0.000112865
-0.000113146
-0.000113308
-0.000113349
-0.000113263
-0.000113043
-0.000112679
-0.000112168
-0.0001115
-0.00011067
-0.000109661
-0.00010848
-0.000107116
-0.000105547
-0.000103821
-0.000101869
-9.97327e-05
-9.74183e-05
-9.52019e-05
-9.21927e-05
-8.9754e-05
-8.67196e-05
-8.38542e-05
-8.07872e-05
-7.76943e-05
-7.46025e-05
-7.15051e-05
-6.84581e-05
-6.54749e-05
-6.25889e-05
-5.98126e-05
-5.71738e-05
-5.46868e-05
-5.23613e-05
-5.02178e-05
-4.82509e-05
-4.64797e-05
-4.48958e-05
-4.351e-05
-4.23144e-05
-4.13102e-05
-4.04916e-05
-3.98577e-05
-3.94009e-05
-3.91166e-05
-3.8999e-05
-3.90408e-05
-3.92363e-05
-3.95785e-05
-4.00602e-05
-4.0675e-05
-4.14159e-05
-4.22765e-05
-4.32503e-05
-4.43295e-05
-4.55096e-05
-4.67831e-05
-4.81447e-05
-4.95865e-05
-5.11044e-05
-5.26919e-05
-5.43425e-05
-5.60525e-05
-5.7814e-05
-5.96228e-05
-6.14737e-05
-6.33611e-05
-6.52805e-05
-6.72248e-05
-6.91881e-05
-7.11661e-05
-7.31522e-05
-7.51418e-05
-7.71294e-05
-7.91093e-05
-8.10772e-05
-8.30268e-05
-8.49526e-05
-8.68533e-05
-8.87199e-05
-9.0549e-05
-9.23365e-05
-9.40756e-05
-9.57648e-05
-9.73983e-05
-9.8973e-05
-0.000100483
-0.000101928
-0.000103301
-0.000104601
-0.000105824
-0.000106967
-0.000108027
-0.000109001
-0.000109886
-0.000110679
-0.000111378
-0.000111976
-0.000112475
-0.000112863
-0.000113144
-0.000113306
-0.000113348
-0.000113261
-0.000113041
-0.000112678
-0.000112168
-0.000111499
-0.00011067
-0.000109661
-0.000108479
-0.000107116
-0.000105547
-0.00010382
-0.000101869
-9.97329e-05
-9.74178e-05
-9.52044e-05
-9.21931e-05
-8.97565e-05
-8.67224e-05
-8.38577e-05
-8.07913e-05
-7.76982e-05
-7.46062e-05
-7.15083e-05
-6.84608e-05
-6.54771e-05
-6.25907e-05
-5.9814e-05
-5.7175e-05
-5.46877e-05
-5.23619e-05
-5.02184e-05
-4.82516e-05
-4.64805e-05
-4.48969e-05
-4.35112e-05
-4.23159e-05
-4.13119e-05
-4.04934e-05
-3.98596e-05
-3.94027e-05
-3.91184e-05
-3.90007e-05
-3.90424e-05
-3.92378e-05
-3.95797e-05
-4.00613e-05
-4.06759e-05
-4.14166e-05
-4.22769e-05
-4.32505e-05
-4.43294e-05
-4.55091e-05
-4.67824e-05
-4.81437e-05
-4.95852e-05
-5.11029e-05
-5.269e-05
-5.43404e-05
-5.60501e-05
-5.78114e-05
-5.962e-05
-6.14707e-05
-6.33578e-05
-6.52769e-05
-6.72211e-05
-6.91842e-05
-7.1162e-05
-7.31479e-05
-7.51373e-05
-7.71247e-05
-7.91045e-05
-8.10723e-05
-8.30218e-05
-8.49475e-05
-8.68481e-05
-8.87147e-05
-9.05436e-05
-9.2331e-05
-9.40702e-05
-9.57593e-05
-9.73927e-05
-9.89674e-05
-0.000100478
-0.000101922
-0.000103296
-0.000104595
-0.000105819
-0.000106962
-0.000108022
-0.000108996
-0.000109881
-0.000110674
-0.000111373
-0.000111971
-0.000112471
-0.000112859
-0.000113141
-0.000113303
-0.000113345
-0.000113259
-0.000113039
-0.000112676
-0.000112166
-0.000111498
-0.000110669
-0.00010966
-0.000108478
-0.000107115
-0.000105546
-0.00010382
-0.000101869
-9.97333e-05
-9.74171e-05
-9.52085e-05
-9.21948e-05
-8.97608e-05
-8.67274e-05
-8.38636e-05
-8.07982e-05
-7.77048e-05
-7.46127e-05
-7.15143e-05
-6.84662e-05
-6.54819e-05
-6.25951e-05
-5.9818e-05
-5.71784e-05
-5.46908e-05
-5.23647e-05
-5.02211e-05
-4.82541e-05
-4.64832e-05
-4.48997e-05
-4.35142e-05
-4.2319e-05
-4.1315e-05
-4.04966e-05
-3.98627e-05
-3.94057e-05
-3.91213e-05
-3.90033e-05
-3.90447e-05
-3.92398e-05
-3.95814e-05
-4.00625e-05
-4.06768e-05
-4.1417e-05
-4.2277e-05
-4.325e-05
-4.43285e-05
-4.55078e-05
-4.67806e-05
-4.81415e-05
-4.95826e-05
-5.10998e-05
-5.26866e-05
-5.43366e-05
-5.60459e-05
-5.78069e-05
-5.96151e-05
-6.14654e-05
-6.33523e-05
-6.52709e-05
-6.72147e-05
-6.91775e-05
-7.11551e-05
-7.31408e-05
-7.513e-05
-7.71173e-05
-7.90969e-05
-8.10645e-05
-8.3014e-05
-8.49396e-05
-8.684e-05
-8.87066e-05
-9.05355e-05
-9.23229e-05
-9.40621e-05
-9.57512e-05
-9.73847e-05
-9.89594e-05
-0.00010047
-0.000101914
-0.000103288
-0.000104588
-0.000105811
-0.000106954
-0.000108015
-0.000108989
-0.000109875
-0.000110668
-0.000111367
-0.000111965
-0.000112465
-0.000112853
-0.000113136
-0.000113298
-0.000113341
-0.000113255
-0.000113036
-0.000112674
-0.000112164
-0.000111496
-0.000110668
-0.000109659
-0.000108478
-0.000107115
-0.000105546
-0.000103821
-0.00010187
-9.97349e-05
-9.74169e-05
-9.52149e-05
-9.2199e-05
-8.9768e-05
-8.67357e-05
-8.38727e-05
-8.08086e-05
-7.77151e-05
-7.46227e-05
-7.15238e-05
-6.8475e-05
-6.54901e-05
-6.26026e-05
-5.98248e-05
-5.71847e-05
-5.46964e-05
-5.23698e-05
-5.02259e-05
-4.82586e-05
-4.64876e-05
-4.49041e-05
-4.35186e-05
-4.23233e-05
-4.13193e-05
-4.05007e-05
-3.98665e-05
-3.94092e-05
-3.91244e-05
-3.9006e-05
-3.90469e-05
-3.92415e-05
-3.95825e-05
-4.00631e-05
-4.06768e-05
-4.14165e-05
-4.22758e-05
-4.32483e-05
-4.43262e-05
-4.55049e-05
-4.67771e-05
-4.81374e-05
-4.9578e-05
-5.10948e-05
-5.2681e-05
-5.43306e-05
-5.60394e-05
-5.78e-05
-5.96079e-05
-6.14578e-05
-6.33443e-05
-6.52625e-05
-6.72058e-05
-6.91684e-05
-7.11458e-05
-7.31313e-05
-7.51204e-05
-7.71075e-05
-7.9087e-05
-8.10546e-05
-8.3004e-05
-8.49295e-05
-8.683e-05
-8.86966e-05
-9.05256e-05
-9.2313e-05
-9.40522e-05
-9.57415e-05
-9.73751e-05
-9.89499e-05
-0.000100461
-0.000101905
-0.000103279
-0.000104579
-0.000105803
-0.000106946
-0.000108006
-0.000108981
-0.000109867
-0.00011066
-0.00011136
-0.000111958
-0.000112459
-0.000112847
-0.000113131
-0.000113294
-0.000113337
-0.000113252
-0.000113034
-0.000112672
-0.000112163
-0.000111496
-0.000110668
-0.00010966
-0.000108479
-0.000107117
-0.000105548
-0.000103824
-0.000101873
-9.97387e-05
-9.74187e-05
-9.52246e-05
-9.22066e-05
-8.97787e-05
-8.6748e-05
-8.38857e-05
-8.0823e-05
-7.77294e-05
-7.46366e-05
-7.1537e-05
-6.84873e-05
-6.55015e-05
-6.2613e-05
-5.98344e-05
-5.71932e-05
-5.47041e-05
-5.23765e-05
-5.02319e-05
-4.82642e-05
-4.64927e-05
-4.49089e-05
-4.35231e-05
-4.23277e-05
-4.13234e-05
-4.05044e-05
-3.98698e-05
-3.94119e-05
-3.91265e-05
-3.90074e-05
-3.90478e-05
-3.92417e-05
-3.9582e-05
-4.00619e-05
-4.06749e-05
-4.14138e-05
-4.22725e-05
-4.32443e-05
-4.43215e-05
-4.54996e-05
-4.67712e-05
-4.81309e-05
-4.9571e-05
-5.10872e-05
-5.26729e-05
-5.43221e-05
-5.60304e-05
-5.77907e-05
-5.95982e-05
-6.14479e-05
-6.3334e-05
-6.52519e-05
-6.7195e-05
-6.91574e-05
-7.11346e-05
-7.312e-05
-7.5109e-05
-7.70961e-05
-7.90756e-05
-8.10432e-05
-8.29926e-05
-8.49182e-05
-8.68187e-05
-8.86856e-05
-9.05146e-05
-9.23021e-05
-9.40416e-05
-9.5731e-05
-9.73648e-05
-9.89399e-05
-0.000100451
-0.000101895
-0.00010327
-0.00010457
-0.000105794
-0.000106937
-0.000107998
-0.000108973
-0.000109859
-0.000110653
-0.000111353
-0.000111952
-0.000112454
-0.000112842
-0.000113126
-0.00011329
-0.000113335
-0.000113251
-0.000113033
-0.000112672
-0.000112164
-0.000111497
-0.000110671
-0.000109663
-0.000108483
-0.000107122
-0.000105553
-0.000103829
-0.00010188
-9.97457e-05
-9.74235e-05
-9.52381e-05
-9.22181e-05
-8.97933e-05
-8.67645e-05
-8.39027e-05
-8.08414e-05
-7.77477e-05
-7.46541e-05
-7.15535e-05
-6.85025e-05
-6.55155e-05
-6.26256e-05
-5.98457e-05
-5.72031e-05
-5.47127e-05
-5.23838e-05
-5.02382e-05
-4.82695e-05
-4.64974e-05
-4.4913e-05
-4.35267e-05
-4.23308e-05
-4.1326e-05
-4.05064e-05
-3.98711e-05
-3.94125e-05
-3.91265e-05
-3.90066e-05
-3.90462e-05
-3.92393e-05
-3.95789e-05
-4.0058e-05
-4.06702e-05
-4.14084e-05
-4.22663e-05
-4.32374e-05
-4.43141e-05
-4.54915e-05
-4.67625e-05
-4.81217e-05
-4.95612e-05
-5.1077e-05
-5.26622e-05
-5.4311e-05
-5.6019e-05
-5.77789e-05
-5.95862e-05
-6.14357e-05
-6.33216e-05
-6.52394e-05
-6.71823e-05
-6.91447e-05
-7.11218e-05
-7.31072e-05
-7.50963e-05
-7.70834e-05
-7.9063e-05
-8.10307e-05
-8.29804e-05
-8.49062e-05
-8.68068e-05
-8.86739e-05
-9.05032e-05
-9.2291e-05
-9.40308e-05
-9.57204e-05
-9.73545e-05
-9.89299e-05
-0.000100441
-0.000101886
-0.000103261
-0.000104561
-0.000105785
-0.000106929
-0.00010799
-0.000108966
-0.000109853
-0.000110647
-0.000111347
-0.000111947
-0.000112449
-0.000112839
-0.000113123
-0.000113288
-0.000113334
-0.000113251
-0.000113034
-0.000112674
-0.000112167
-0.000111502
-0.000110676
-0.000109669
-0.00010849
-0.000107129
-0.000105561
-0.000103838
-0.000101889
-9.97563e-05
-9.74318e-05
-9.52555e-05
-9.22338e-05
-8.98116e-05
-8.67852e-05
-8.39235e-05
-8.08633e-05
-7.77693e-05
-7.46746e-05
-7.15726e-05
-6.85197e-05
-6.55309e-05
-6.26393e-05
-5.98577e-05
-5.72132e-05
-5.4721e-05
-5.23905e-05
-5.02436e-05
-4.82737e-05
-4.65006e-05
-4.49155e-05
-4.35284e-05
-4.23317e-05
-4.13261e-05
-4.05058e-05
-3.98696e-05
-3.94102e-05
-3.91233e-05
-3.90026e-05
-3.90414e-05
-3.92337e-05
-3.95725e-05
-4.00508e-05
-4.06623e-05
-4.13998e-05
-4.2257e-05
-4.32274e-05
-4.43035e-05
-4.54804e-05
-4.67509e-05
-4.81095e-05
-4.95487e-05
-5.1064e-05
-5.2649e-05
-5.42975e-05
-5.60052e-05
-5.7765e-05
-5.95721e-05
-6.14215e-05
-6.33074e-05
-6.52251e-05
-6.71681e-05
-6.91305e-05
-7.11077e-05
-7.30933e-05
-7.50825e-05
-7.70699e-05
-7.90497e-05
-8.10177e-05
-8.29676e-05
-8.48937e-05
-8.67946e-05
-8.86622e-05
-9.04918e-05
-9.22799e-05
-9.40201e-05
-9.57102e-05
-9.73447e-05
-9.89204e-05
-0.000100432
-0.000101877
-0.000103252
-0.000104553
-0.000105778
-0.000106922
-0.000107984
-0.00010896
-0.000109847
-0.000110642
-0.000111343
-0.000111943
-0.000112446
-0.000112837
-0.000113122
-0.000113288
-0.000113335
-0.000113253
-0.000113038
-0.000112679
-0.000112173
-0.000111509
-0.000110684
-0.000109679
-0.0001085
-0.00010714
-0.000105572
-0.00010385
-0.000101903
-9.97708e-05
-9.7444e-05
-9.52769e-05
-9.22535e-05
-8.98332e-05
-8.68094e-05
-8.39469e-05
-8.08875e-05
-7.77931e-05
-7.46968e-05
-7.15931e-05
-6.85379e-05
-6.5547e-05
-6.26531e-05
-5.98694e-05
-5.72227e-05
-5.47284e-05
-5.23959e-05
-5.02472e-05
-4.82759e-05
-4.65017e-05
-4.49156e-05
-4.35276e-05
-4.23298e-05
-4.1323e-05
-4.05016e-05
-3.98646e-05
-3.94042e-05
-3.91165e-05
-3.89949e-05
-3.90329e-05
-3.92244e-05
-3.95624e-05
-4.004e-05
-4.06508e-05
-4.13877e-05
-4.22443e-05
-4.32142e-05
-4.42898e-05
-4.54661e-05
-4.67362e-05
-4.80945e-05
-4.95334e-05
-5.10485e-05
-5.26333e-05
-5.42817e-05
-5.59893e-05
-5.7749e-05
-5.95562e-05
-6.14057e-05
-6.32917e-05
-6.52095e-05
-6.71526e-05
-6.91152e-05
-7.10927e-05
-7.30785e-05
-7.50681e-05
-7.70558e-05
-7.9036e-05
-8.10044e-05
-8.29548e-05
-8.48813e-05
-8.67826e-05
-8.86508e-05
-9.04809e-05
-9.22694e-05
-9.40102e-05
-9.57007e-05
-9.73357e-05
-9.89118e-05
-0.000100424
-0.00010187
-0.000103245
-0.000104547
-0.000105772
-0.000106917
-0.000107979
-0.000108955
-0.000109843
-0.000110638
-0.00011134
-0.000111941
-0.000112445
-0.000112837
-0.000113124
-0.000113291
-0.000113338
-0.000113258
-0.000113044
-0.000112687
-0.000112182
-0.000111519
-0.000110696
-0.000109691
-0.000108513
-0.000107154
-0.000105587
-0.000103866
-0.000101921
-9.97892e-05
-9.746e-05
-9.53018e-05
-9.22761e-05
-8.98568e-05
-8.6836e-05
-8.39723e-05
-8.09136e-05
-7.78186e-05
-7.47204e-05
-7.16146e-05
-6.85569e-05
-6.55634e-05
-6.26668e-05
-5.98806e-05
-5.72313e-05
-5.47344e-05
-5.23995e-05
-5.02488e-05
-4.82757e-05
-4.65e-05
-4.49127e-05
-4.35233e-05
-4.23241e-05
-4.13159e-05
-4.04935e-05
-3.98555e-05
-3.93942e-05
-3.91056e-05
-3.89831e-05
-3.90204e-05
-3.92111e-05
-3.95485e-05
-4.00254e-05
-4.06356e-05
-4.1372e-05
-4.22282e-05
-4.31976e-05
-4.42728e-05
-4.54489e-05
-4.67187e-05
-4.80768e-05
-4.95155e-05
-5.10306e-05
-5.26153e-05
-5.42638e-05
-5.59714e-05
-5.77313e-05
-5.95387e-05
-6.13884e-05
-6.32747e-05
-6.51928e-05
-6.71362e-05
-6.90992e-05
-7.1077e-05
-7.30633e-05
-7.50534e-05
-7.70416e-05
-7.90224e-05
-8.09913e-05
-8.29423e-05
-8.48694e-05
-8.67713e-05
-8.86401e-05
-9.04707e-05
-9.22599e-05
-9.40013e-05
-9.56924e-05
-9.7328e-05
-9.89047e-05
-0.000100417
-0.000101864
-0.00010324
-0.000104542
-0.000105767
-0.000106913
-0.000107976
-0.000108953
-0.000109841
-0.000110637
-0.00011134
-0.000111942
-0.000112447
-0.000112839
-0.000113127
-0.000113296
-0.000113345
-0.000113266
-0.000113054
-0.000112698
-0.000112195
-0.000111533
-0.00011071
-0.000109708
-0.00010853
-0.000107172
-0.000105606
-0.000103886
-0.000101942
-9.9811e-05
-9.74793e-05
-9.53294e-05
-9.23015e-05
-8.98822e-05
-8.68648e-05
-8.39999e-05
-8.09418e-05
-7.78461e-05
-7.47454e-05
-7.16371e-05
-6.85764e-05
-6.55799e-05
-6.26801e-05
-5.98908e-05
-5.72384e-05
-5.47385e-05
-5.24009e-05
-5.02477e-05
-4.82726e-05
-4.64949e-05
-4.49056e-05
-4.35144e-05
-4.23138e-05
-4.13044e-05
-4.0481e-05
-3.9842e-05
-3.93798e-05
-3.90904e-05
-3.89671e-05
-3.90036e-05
-3.91937e-05
-3.95305e-05
-4.0007e-05
-4.06167e-05
-4.13527e-05
-4.22085e-05
-4.31776e-05
-4.42527e-05
-4.54286e-05
-4.66984e-05
-4.80564e-05
-4.94952e-05
-5.10103e-05
-5.25951e-05
-5.42439e-05
-5.59517e-05
-5.7712e-05
-5.95197e-05
-6.13699e-05
-6.32566e-05
-6.51752e-05
-6.7119e-05
-6.90826e-05
-7.1061e-05
-7.30479e-05
-7.50386e-05
-7.70275e-05
-7.9009e-05
-8.09786e-05
-8.29304e-05
-8.48582e-05
-8.67607e-05
-8.86303e-05
-9.04617e-05
-9.22516e-05
-9.39937e-05
-9.56855e-05
-9.73218e-05
-9.88992e-05
-0.000100413
-0.00010186
-0.000103236
-0.000104539
-0.000105765
-0.000106911
-0.000107975
-0.000108953
-0.000109842
-0.000110639
-0.000111342
-0.000111945
-0.000112451
-0.000112845
-0.000113134
-0.000113304
-0.000113354
-0.000113277
-0.000113066
-0.000112712
-0.00011221
-0.000111549
-0.000110728
-0.000109727
-0.000108551
-0.000107193
-0.000105628
-0.000103908
-0.000101966
-9.98355e-05
-9.75012e-05
-9.53592e-05
-9.23301e-05
-8.991e-05
-8.68964e-05
-8.40298e-05
-8.09721e-05
-7.78752e-05
-7.47716e-05
-7.16605e-05
-6.85961e-05
-6.55961e-05
-6.26926e-05
-5.98998e-05
-5.72438e-05
-5.47405e-05
-5.23997e-05
-5.02433e-05
-4.82653e-05
-4.6485e-05
-4.48936e-05
-4.35006e-05
-4.22988e-05
-4.12884e-05
-4.0464e-05
-3.98239e-05
-3.93609e-05
-3.90707e-05
-3.89467e-05
-3.89826e-05
-3.91722e-05
-3.95085e-05
-3.99846e-05
-4.0594e-05
-4.13297e-05
-4.21854e-05
-4.31543e-05
-4.42294e-05
-4.54053e-05
-4.66751e-05
-4.80333e-05
-4.94723e-05
-5.09877e-05
-5.25729e-05
-5.42221e-05
-5.59303e-05
-5.76911e-05
-5.94994e-05
-6.13502e-05
-6.32376e-05
-6.51567e-05
-6.71013e-05
-6.90655e-05
-7.10447e-05
-7.30323e-05
-7.50239e-05
-7.70137e-05
-7.8996e-05
-8.09665e-05
-8.29191e-05
-8.48479e-05
-8.67512e-05
-8.86218e-05
-9.0454e-05
-9.22446e-05
-9.39877e-05
-9.56803e-05
-9.73174e-05
-9.88955e-05
-0.00010041
-0.000101858
-0.000103235
-0.000104538
-0.000105765
-0.000106912
-0.000107976
-0.000108955
-0.000109845
-0.000110642
-0.000111347
-0.00011195
-0.000112457
-0.000112852
-0.000113142
-0.000113313
-0.000113366
-0.00011329
-0.000113081
-0.000112728
-0.000112227
-0.000111568
-0.000110749
-0.000109749
-0.000108573
-0.000107217
-0.000105652
-0.000103933
-0.000101993
-9.98624e-05
-9.75258e-05
-9.53911e-05
-9.23621e-05
-8.99403e-05
-8.69307e-05
-8.40619e-05
-8.10042e-05
-7.7906e-05
-7.47989e-05
-7.16843e-05
-6.86159e-05
-6.56118e-05
-6.27041e-05
-5.99073e-05
-5.7247e-05
-5.47394e-05
-5.23944e-05
-5.02341e-05
-4.82529e-05
-4.64699e-05
-4.48768e-05
-4.34823e-05
-4.22793e-05
-4.12677e-05
-4.04423e-05
-3.98013e-05
-3.93374e-05
-3.90465e-05
-3.89217e-05
-3.89572e-05
-3.91463e-05
-3.94823e-05
-3.99581e-05
-4.05673e-05
-4.13029e-05
-4.21586e-05
-4.31275e-05
-4.42028e-05
-4.53788e-05
-4.6649e-05
-4.80074e-05
-4.94469e-05
-5.09628e-05
-5.25484e-05
-5.41982e-05
-5.59071e-05
-5.76686e-05
-5.94777e-05
-6.13293e-05
-6.32174e-05
-6.51374e-05
-6.70828e-05
-6.90479e-05
-7.1028e-05
-7.30167e-05
-7.50092e-05
-7.7e-05
-7.89833e-05
-8.09549e-05
-8.29085e-05
-8.48384e-05
-8.67427e-05
-8.86144e-05
-9.04476e-05
-9.22392e-05
-9.39832e-05
-9.56767e-05
-9.73146e-05
-9.88936e-05
-0.000100409
-0.000101857
-0.000103235
-0.000104539
-0.000105767
-0.000106915
-0.000107979
-0.000108958
-0.000109849
-0.000110647
-0.000111353
-0.000111957
-0.000112465
-0.000112861
-0.000113152
-0.000113325
-0.000113379
-0.000113305
-0.000113097
-0.000112746
-0.000112248
-0.00011159
-0.000110772
-0.000109774
-0.000108599
-0.000107244
-0.00010568
-0.000103961
-0.000102023
-9.98925e-05
-9.75536e-05
-9.54256e-05
-9.23975e-05
-8.99731e-05
-8.69676e-05
-8.40963e-05
-8.10381e-05
-7.79382e-05
-7.48271e-05
-7.17087e-05
-6.86356e-05
-6.56269e-05
-6.27142e-05
-5.99123e-05
-5.72467e-05
-5.47339e-05
-5.23842e-05
-5.022e-05
-4.82358e-05
-4.64504e-05
-4.48555e-05
-4.34594e-05
-4.2255e-05
-4.12422e-05
-4.04158e-05
-3.97738e-05
-3.93091e-05
-3.90175e-05
-3.88921e-05
-3.89271e-05
-3.91159e-05
-3.94516e-05
-3.99273e-05
-4.05365e-05
-4.12721e-05
-4.21279e-05
-4.30971e-05
-4.41726e-05
-4.53491e-05
-4.66197e-05
-4.79786e-05
-4.94187e-05
-5.09352e-05
-5.25215e-05
-5.41722e-05
-5.58818e-05
-5.76443e-05
-5.94543e-05
-6.13069e-05
-6.31961e-05
-6.5117e-05
-6.70634e-05
-6.90297e-05
-7.10109e-05
-7.30007e-05
-7.49945e-05
-7.69866e-05
-7.8971e-05
-8.09437e-05
-8.28985e-05
-8.48296e-05
-8.6735e-05
-8.8608e-05
-9.04424e-05
-9.22351e-05
-9.39802e-05
-9.56747e-05
-9.73136e-05
-9.88934e-05
-0.000100409
-0.000101859
-0.000103237
-0.000104542
-0.000105771
-0.000106919
-0.000107984
-0.000108964
-0.000109855
-0.000110654
-0.00011136
-0.000111966
-0.000112475
-0.000112872
-0.000113165
-0.00011334
-0.000113395
-0.000113323
-0.000113117
-0.000112768
-0.000112271
-0.000111615
-0.000110799
-0.000109802
-0.000108629
-0.000107274
-0.000105711
-0.000103993
-0.000102056
-9.99258e-05
-9.75849e-05
-9.54627e-05
-9.24362e-05
-9.00085e-05
-8.70071e-05
-8.41329e-05
-8.10739e-05
-7.7972e-05
-7.48564e-05
-7.17335e-05
-6.8655e-05
-6.56405e-05
-6.27215e-05
-5.99136e-05
-5.7242e-05
-5.47241e-05
-5.237e-05
-5.02019e-05
-4.82148e-05
-4.64267e-05
-4.48298e-05
-4.34318e-05
-4.2226e-05
-4.12119e-05
-4.03843e-05
-3.97413e-05
-3.92758e-05
-3.89835e-05
-3.88576e-05
-3.88923e-05
-3.90808e-05
-3.94164e-05
-3.9892e-05
-4.05013e-05
-4.12371e-05
-4.20932e-05
-4.30627e-05
-4.41388e-05
-4.53158e-05
-4.6587e-05
-4.79466e-05
-4.93875e-05
-5.09048e-05
-5.2492e-05
-5.41436e-05
-5.58543e-05
-5.76178e-05
-5.94291e-05
-6.1283e-05
-6.31734e-05
-6.50955e-05
-6.70431e-05
-6.90106e-05
-7.0993e-05
-7.29843e-05
-7.49795e-05
-7.6973e-05
-7.89589e-05
-8.0933e-05
-8.28892e-05
-8.48217e-05
-8.67283e-05
-8.86023e-05
-9.04379e-05
-9.22319e-05
-9.39783e-05
-9.5674e-05
-9.7314e-05
-9.88947e-05
-0.000100411
-0.000101861
-0.000103241
-0.000104547
-0.000105776
-0.000106925
-0.000107991
-0.000108971
-0.000109864
-0.000110664
-0.000111371
-0.000111977
-0.000112487
-0.000112886
-0.00011318
-0.000113357
-0.000113414
-0.000113344
-0.00011314
-0.000112792
-0.000112297
-0.000111643
-0.000110829
-0.000109833
-0.000108662
-0.000107308
-0.000105746
-0.000104028
-0.000102093
-9.99624e-05
-9.76197e-05
-9.55024e-05
-9.24784e-05
-9.00466e-05
-8.70493e-05
-8.4172e-05
-8.11117e-05
-7.80073e-05
-7.48865e-05
-7.17578e-05
-6.86726e-05
-6.56512e-05
-6.27254e-05
-5.99116e-05
-5.72343e-05
-5.47112e-05
-5.23526e-05
-5.01803e-05
-4.81899e-05
-4.63988e-05
-4.47996e-05
-4.33996e-05
-4.21921e-05
-4.11765e-05
-4.03477e-05
-3.97037e-05
-3.92373e-05
-3.89444e-05
-3.8818e-05
-3.88523e-05
-3.90407e-05
-3.93762e-05
-3.98519e-05
-4.04613e-05
-4.11974e-05
-4.20539e-05
-4.3024e-05
-4.41007e-05
-4.52784e-05
-4.65506e-05
-4.79111e-05
-4.93529e-05
-5.08712e-05
-5.24595e-05
-5.41123e-05
-5.58241e-05
-5.7589e-05
-5.94017e-05
-6.12571e-05
-6.3149e-05
-6.50726e-05
-6.70217e-05
-6.89908e-05
-7.09747e-05
-7.29675e-05
-7.4964e-05
-7.69589e-05
-7.89466e-05
-8.09224e-05
-8.28803e-05
-8.48144e-05
-8.67225e-05
-8.85978e-05
-9.04346e-05
-9.22299e-05
-9.39777e-05
-9.56747e-05
-9.73159e-05
-9.88976e-05
-0.000100415
-0.000101866
-0.000103247
-0.000104554
-0.000105784
-0.000106933
-0.000108
-0.000108981
-0.000109875
-0.000110676
-0.000111383
-0.000111991
-0.000112502
-0.000112903
-0.000113198
-0.000113377
-0.000113436
-0.000113367
-0.000113165
-0.00011282
-0.000112327
-0.000111675
-0.000110862
-0.000109869
-0.000108698
-0.000107345
-0.000105785
-0.000104066
-0.000102133
-0.000100002
-9.76581e-05
-9.55449e-05
-9.25243e-05
-9.00878e-05
-8.70945e-05
-8.42137e-05
-8.11515e-05
-7.80436e-05
-7.49161e-05
-7.17807e-05
-6.8688e-05
-6.56601e-05
-6.27277e-05
-5.99079e-05
-5.72247e-05
-5.46958e-05
-5.23322e-05
-5.01552e-05
-4.81611e-05
-4.63667e-05
-4.47649e-05
-4.33625e-05
-4.21532e-05
-4.1136e-05
-4.03059e-05
-3.96606e-05
-3.91933e-05
-3.88997e-05
-3.87728e-05
-3.88069e-05
-3.89952e-05
-3.93308e-05
-3.98066e-05
-4.04163e-05
-4.11529e-05
-4.20099e-05
-4.29806e-05
-4.40581e-05
-4.52367e-05
-4.65099e-05
-4.78716e-05
-4.93147e-05
-5.08343e-05
-5.2424e-05
-5.40782e-05
-5.57916e-05
-5.7558e-05
-5.93721e-05
-6.12289e-05
-6.31225e-05
-6.50479e-05
-6.69989e-05
-6.89699e-05
-7.09557e-05
-7.29503e-05
-7.49484e-05
-7.69449e-05
-7.89345e-05
-8.09121e-05
-8.28719e-05
-8.48078e-05
-8.67176e-05
-8.85946e-05
-9.0433e-05
-9.22297e-05
-9.3979e-05
-9.56773e-05
-9.73197e-05
-9.89027e-05
-0.000100422
-0.000101874
-0.000103255
-0.000104563
-0.000105794
-0.000106944
-0.000108012
-0.000108994
-0.000109888
-0.00011069
-0.000111399
-0.000112008
-0.00011252
-0.000112922
-0.000113219
-0.000113399
-0.00011346
-0.000113394
-0.000113194
-0.000112851
-0.00011236
-0.00011171
-0.000110899
-0.000109908
-0.000108738
-0.000107386
-0.000105827
-0.000104108
-0.000102177
-0.000100046
-9.77005e-05
-9.55904e-05
-9.2574e-05
-9.01323e-05
-8.71427e-05
-8.42575e-05
-8.11923e-05
-7.80798e-05
-7.49451e-05
-7.18032e-05
-6.87036e-05
-6.56689e-05
-6.27296e-05
-5.99032e-05
-5.72136e-05
-5.46784e-05
-5.23091e-05
-5.01268e-05
-4.81284e-05
-4.63302e-05
-4.47255e-05
-4.33206e-05
-4.21092e-05
-4.10901e-05
-4.02585e-05
-3.9612e-05
-3.91437e-05
-3.88492e-05
-3.87218e-05
-3.87556e-05
-3.89438e-05
-3.92795e-05
-3.97556e-05
-4.03659e-05
-4.1103e-05
-4.19608e-05
-4.29324e-05
-4.40109e-05
-4.51906e-05
-4.64648e-05
-4.78275e-05
-4.92721e-05
-5.07934e-05
-5.23849e-05
-5.4041e-05
-5.57562e-05
-5.75246e-05
-5.93406e-05
-6.1199e-05
-6.30945e-05
-6.50219e-05
-6.69749e-05
-6.8948e-05
-7.09359e-05
-7.29326e-05
-7.49329e-05
-7.69314e-05
-7.8923e-05
-8.09026e-05
-8.28643e-05
-8.48021e-05
-8.67138e-05
-8.85926e-05
-9.04327e-05
-9.22311e-05
-9.3982e-05
-9.56817e-05
-9.73255e-05
-9.89098e-05
-0.00010043
-0.000101883
-0.000103266
-0.000104575
-0.000105806
-0.000106958
-0.000108026
-0.000109009
-0.000109904
-0.000110707
-0.000111417
-0.000112027
-0.00011254
-0.000112944
-0.000113243
-0.000113425
-0.000113488
-0.000113424
-0.000113227
-0.000112886
-0.000112397
-0.000111749
-0.00011094
-0.000109951
-0.000108783
-0.000107432
-0.000105874
-0.000104155
-0.000102225
-0.000100094
-9.77472e-05
-9.56393e-05
-9.26278e-05
-9.01802e-05
-8.71933e-05
-8.43029e-05
-8.12342e-05
-7.81174e-05
-7.4976e-05
-7.18276e-05
-6.87206e-05
-6.56786e-05
-6.27318e-05
-5.98981e-05
-5.72011e-05
-5.46589e-05
-5.22833e-05
-5.00949e-05
-4.80918e-05
-4.62893e-05
-4.46812e-05
-4.32734e-05
-4.20596e-05
-4.10384e-05
-4.02051e-05
-3.95571e-05
-3.90877e-05
-3.87924e-05
-3.86644e-05
-3.86978e-05
-3.88857e-05
-3.92215e-05
-3.96981e-05
-4.03091e-05
-4.10472e-05
-4.1906e-05
-4.28788e-05
-4.39587e-05
-4.51398e-05
-4.64154e-05
-4.77795e-05
-4.92258e-05
-5.07489e-05
-5.23423e-05
-5.40005e-05
-5.57178e-05
-5.74884e-05
-5.93067e-05
-6.11674e-05
-6.30651e-05
-6.49947e-05
-6.69499e-05
-6.89252e-05
-7.09154e-05
-7.29144e-05
-7.4917e-05
-7.69178e-05
-7.89116e-05
-8.08934e-05
-8.28573e-05
-8.47973e-05
-8.6711e-05
-8.85918e-05
-9.04339e-05
-9.22341e-05
-9.39867e-05
-9.5688e-05
-9.73334e-05
-9.89191e-05
-0.000100441
-0.000101895
-0.000103279
-0.000104589
-0.000105822
-0.000106974
-0.000108043
-0.000109027
-0.000109923
-0.000110727
-0.000111438
-0.000112049
-0.000112564
-0.000112969
-0.00011327
-0.000113454
-0.00011352
-0.000113458
-0.000113263
-0.000112924
-0.000112438
-0.000111793
-0.000110985
-0.000109998
-0.000108832
-0.000107481
-0.000105925
-0.000104205
-0.000102278
-0.000100146
-9.77984e-05
-9.56918e-05
-9.26857e-05
-9.02312e-05
-8.72466e-05
-8.43513e-05
-8.12795e-05
-7.81587e-05
-7.50104e-05
-7.18548e-05
-6.87398e-05
-6.56895e-05
-6.27342e-05
-5.98922e-05
-5.71871e-05
-5.46369e-05
-5.22541e-05
-5.0059e-05
-4.80504e-05
-4.62429e-05
-4.46308e-05
-4.32193e-05
-4.20026e-05
-4.09791e-05
-4.01441e-05
-3.94946e-05
-3.90241e-05
-3.87281e-05
-3.85997e-05
-3.86329e-05
-3.88207e-05
-3.91567e-05
-3.9634e-05
-4.02458e-05
-4.0985e-05
-4.18452e-05
-4.28194e-05
-4.3901e-05
-4.50838e-05
-4.63612e-05
-4.77273e-05
-4.91756e-05
-5.07008e-05
-5.22964e-05
-5.39569e-05
-5.56765e-05
-5.74494e-05
-5.92702e-05
-6.11334e-05
-6.30336e-05
-6.49657e-05
-6.69234e-05
-6.89013e-05
-7.0894e-05
-7.28955e-05
-7.49006e-05
-7.6904e-05
-7.89004e-05
-8.08846e-05
-8.28509e-05
-8.47933e-05
-8.67092e-05
-8.85922e-05
-9.04365e-05
-9.22387e-05
-9.39932e-05
-9.56963e-05
-9.73434e-05
-9.89306e-05
-0.000100454
-0.00010191
-0.000103295
-0.000104606
-0.000105839
-0.000106993
-0.000108063
-0.000109048
-0.000109945
-0.00011075
-0.000111462
-0.000112075
-0.00011259
-0.000112998
-0.0001133
-0.000113487
-0.000113554
-0.000113495
-0.000113303
-0.000112967
-0.000112483
-0.00011184
-0.000111035
-0.00011005
-0.000108885
-0.000107536
-0.000105981
-0.000104261
-0.000102335
-0.000100202
-9.78546e-05
-9.57485e-05
-9.27482e-05
-9.02867e-05
-8.73046e-05
-8.44047e-05
-8.13298e-05
-7.82044e-05
-7.50484e-05
-7.18848e-05
-6.87606e-05
-6.5701e-05
-6.2736e-05
-5.98845e-05
-5.71697e-05
-5.46103e-05
-5.22194e-05
-5.00168e-05
-4.80022e-05
-4.61893e-05
-4.45728e-05
-4.31572e-05
-4.19375e-05
-4.09116e-05
-4.00747e-05
-3.94237e-05
-3.89522e-05
-3.86555e-05
-3.85268e-05
-3.85601e-05
-3.87483e-05
-3.9085e-05
-3.95632e-05
-4.01761e-05
-4.09166e-05
-4.17783e-05
-4.27541e-05
-4.38375e-05
-4.50223e-05
-4.63018e-05
-4.76701e-05
-4.91207e-05
-5.06483e-05
-5.22464e-05
-5.39094e-05
-5.56316e-05
-5.74073e-05
-5.92308e-05
-6.10968e-05
-6.29998e-05
-6.49347e-05
-6.68952e-05
-6.88759e-05
-7.08714e-05
-7.28758e-05
-7.48838e-05
-7.689e-05
-7.88891e-05
-8.08761e-05
-8.2845e-05
-8.47901e-05
-8.67085e-05
-8.85939e-05
-9.04405e-05
-9.22449e-05
-9.40016e-05
-9.57066e-05
-9.73555e-05
-9.89445e-05
-0.000100469
-0.000101927
-0.000103313
-0.000104625
-0.00010586
-0.000107015
-0.000108086
-0.000109072
-0.00010997
-0.000110776
-0.000111489
-0.000112103
-0.00011262