/*--------------------------------*- C++ -*----------------------------------*\
| =========                 |                                                 |
| \\      /  F ield         | OpenFOAM: The Open Source CFD Toolbox           |
|  \\    /   O peration     | Version:  2212                                  |
|   \\  /    A nd           | Website:  www.openfoam.com                      |
|    \\/     M anipulation  |                                                 |
\*---------------------------------------------------------------------------*/
FoamFile
{
    version     2.0;
    format      ascii;
    arch        "LSB;label=32;scalar=64";
    class       volVectorField;
    location    "2";
    object      U;
}
// * * * * * * * * * * * * * * * * * * * * * * * * * * * * * * * * * * * * * //

dimensions      [0 1 -1 0 0 0 0];

internalField   nonuniform List<vector> 
14751
(
(0.00159913 1.07215e-07 0)
(0.0015929 -5.90373e-08 0)
(0.00159377 1.09396e-07 -2.23536e-26)
(0.00158552 9.8889e-08 2.23668e-26)
(0.00157931 1.59861e-07 -4.15924e-26)
(0.00156802 1.98397e-07 6.94668e-25)
(0.00155492 2.2591e-07 0)
(0.00153979 2.61423e-07 -9.20802e-27)
(0.00152231 2.84983e-07 3.97066e-28)
(0.00150315 3.05518e-07 -8.05505e-27)
(0.00148247 3.18264e-07 7.47222e-28)
(0.00146052 3.28615e-07 1.02758e-24)
(0.00143745 3.32675e-07 0)
(0.00141379 3.31432e-07 -2.83381e-26)
(0.00138965 3.27731e-07 -8.59625e-25)
(0.00136536 3.15792e-07 -4.26231e-25)
(0.00134115 3.04444e-07 2.51497e-26)
(0.00131709 2.85737e-07 -2.51732e-26)
(0.0012935 2.68185e-07 -3.82117e-25)
(0.00127044 2.47191e-07 -3.7065e-25)
(0.0012482 2.27068e-07 0)
(0.00122673 2.06988e-07 -3.74327e-25)
(0.00120615 1.88429e-07 2.1831e-26)
(0.00118654 1.70586e-07 -2.1169e-26)
(0.00116801 1.54212e-07 2.11857e-26)
(0.00115049 1.38246e-07 6.69675e-25)
(0.00113402 1.24273e-07 0)
(0.00111861 1.10497e-07 1.67312e-25)
(0.00110426 9.84129e-08 0)
(0.00109102 8.70369e-08 0)
(0.00107887 7.67286e-08 0)
(0.00106779 6.71309e-08 0)
(0.00105777 5.84681e-08 0)
(0.0010488 5.04057e-08 1.14864e-26)
(0.00104087 4.3009e-08 -1.14903e-26)
(0.00103393 3.58094e-08 3.93347e-25)
(0.00102793 2.95586e-08 -4.03596e-25)
(0.00102291 2.3708e-08 -4.02563e-25)
(0.00101885 1.82106e-08 0)
(0.00101569 1.22605e-08 0)
(0.00101337 6.94629e-09 3.49026e-27)
(0.00101196 3.499e-09 -3.49043e-27)
(0.00101142 -8.30703e-10 -3.71254e-27)
(0.00101174 -3.80867e-09 3.71267e-27)
(0.00101291 -7.56515e-09 1.97485e-27)
(0.00101483 -1.07455e-08 -1.97488e-27)
(0.00101749 -1.3846e-08 -1.04965e-27)
(0.00102084 -1.64561e-08 -2.71717e-25)
(0.00102487 -1.95835e-08 0)
(0.00102961 -2.24427e-08 2.86716e-28)
(0.00103503 -2.48877e-08 -2.86692e-28)
(0.00104112 -2.70783e-08 -6.06559e-28)
(0.00104787 -2.92543e-08 6.06496e-28)
(0.00105522 -3.13203e-08 1.27968e-27)
(0.00106316 -3.32788e-08 3.33172e-25)
(0.00107166 -3.47383e-08 -5.31684e-27)
(0.0010807 -3.64994e-08 2.6911e-27)
(0.00109025 -3.78007e-08 0)
(0.00110022 -3.84434e-08 0)
(0.00111068 -3.87915e-08 0)
(0.00112164 -4.00407e-08 -1.52496e-24)
(0.00113297 -3.91994e-08 -3.09985e-24)
(0.00114468 -4.05331e-08 -1.22741e-26)
(0.00115667 -4.18139e-08 -1.27373e-26)
(0.00116889 -4.18739e-08 -1.31789e-26)
(0.00118137 -4.19613e-08 8.88136e-25)
(0.00119409 -4.22023e-08 -8.7542e-25)
(0.00120699 -4.27554e-08 0)
(0.00122002 -4.27763e-08 2.74869e-26)
(0.00123322 -4.31146e-08 -2.74738e-26)
(0.00124653 -4.33796e-08 0)
(0.00125994 -4.42738e-08 0)
(0.00127345 -4.51367e-08 0)
(0.00128703 -4.65544e-08 0)
(0.00130068 -4.85441e-08 1.16409e-25)
(0.0013144 -5.12349e-08 -5.88514e-26)
(0.00132817 -5.40273e-08 -1.18443e-25)
(0.00134201 -5.88871e-08 1.18682e-25)
(0.0013559 -6.23079e-08 -1.18966e-25)
(0.00136989 -7.08013e-08 -5.9717e-26)
(0.00138398 -7.5588e-08 1.20016e-25)
(0.00139809 -8.59674e-08 0)
(0.00141236 -9.44336e-08 0)
(0.00142664 -1.05447e-07 -6.00909e-26)
(0.001441 -1.16059e-07 6.00368e-26)
(0.00145541 -1.27553e-07 0)
(0.00146981 -1.37256e-07 0)
(0.00148413 -1.48305e-07 0)
(0.0014983 -1.56024e-07 0)
(0.00151228 -1.66911e-07 -1.88201e-24)
(0.00152585 -1.69963e-07 1.45088e-26)
(0.00153878 -1.72494e-07 0)
(0.0015513 -1.7584e-07 1.3978e-26)
(0.00156252 -1.59749e-07 6.94392e-26)
(0.00157272 -1.64175e-07 -4.05218e-26)
(0.00158177 -1.42536e-07 1.34881e-26)
(0.00158772 -1.14279e-07 4.24789e-25)
(0.00159005 -3.99814e-08 -6.48285e-27)
(0.00159838 -1.85534e-07 -7.98156e-25)
(0.00474872 6.19022e-07 -3.58031e-23)
(0.00473003 4.73103e-08 0)
(0.00472795 6.74226e-07 -6.54356e-23)
(0.00470683 8.08125e-07 -2.08018e-24)
(0.00469009 1.09894e-06 1.22635e-22)
(0.00466195 1.40383e-06 2.0029e-24)
(0.00462898 1.58256e-06 9.38697e-25)
(0.00459083 1.79983e-06 0)
(0.0045467 1.97164e-06 -1.15598e-22)
(0.00449816 2.12024e-06 6.68983e-24)
(0.00444559 2.23582e-06 0)
(0.00438967 2.33136e-06 -1.50733e-24)
(0.00433081 2.39606e-06 0)
(0.00427026 2.43213e-06 0)
(0.00420839 2.45193e-06 7.64645e-23)
(0.00414599 2.43469e-06 1.11734e-23)
(0.00408368 2.41687e-06 -7.95897e-23)
(0.00402165 2.36575e-06 -1.89213e-23)
(0.00396074 2.31055e-06 1.95837e-23)
(0.00390116 2.23465e-06 5.67731e-25)
(0.00384362 2.14962e-06 8.76366e-24)
(0.00378808 2.05727e-06 -8.25354e-24)
(0.00373484 1.96062e-06 0)
(0.00368411 1.85836e-06 0)
(0.00363618 1.75281e-06 0)
(0.00359093 1.64282e-06 -1.04255e-24)
(0.0035485 1.53494e-06 5.83752e-23)
(0.0035089 1.4235e-06 7.50785e-23)
(0.00347215 1.31528e-06 0)
(0.00343839 1.20673e-06 -2.98245e-23)
(0.00340757 1.10061e-06 -3.89053e-23)
(0.00337968 9.95851e-07 3.52079e-23)
(0.0033547 8.93768e-07 0)
(0.00333258 7.92982e-07 -4.64335e-24)
(0.00331334 6.94708e-07 4.70404e-23)
(0.00329682 5.98538e-07 -7.81787e-24)
(0.00328293 5.05821e-07 3.06903e-24)
(0.00327177 4.14332e-07 2.10634e-23)
(0.00326326 3.25275e-07 0)
(0.00325728 2.37045e-07 0)
(0.00325367 1.51965e-07 -2.83897e-24)
(0.00325259 7.29784e-08 2.84038e-24)
(0.00325394 -6.72797e-09 -1.03898e-23)
(0.00325768 -8.11274e-08 -1.51133e-24)
(0.00326381 -1.55249e-07 0)
(0.00327203 -2.24039e-07 0)
(0.00328228 -2.90286e-07 0)
(0.00329445 -3.531e-07 3.90295e-24)
(0.0033085 -4.17919e-07 0)
(0.00332446 -4.81757e-07 0)
(0.00334228 -5.42931e-07 4.79772e-25)
(0.00336193 -6.02015e-07 -4.79501e-25)
(0.00338336 -6.58978e-07 0)
(0.00340641 -7.13558e-07 8.20331e-24)
(0.00343104 -7.65779e-07 -1.73524e-23)
(0.00345713 -8.14242e-07 -2.18217e-24)
(0.00348462 -8.61924e-07 1.76005e-23)
(0.0035134 -9.04447e-07 2.23084e-24)
(0.00354326 -9.423e-07 -3.22458e-23)
(0.00357431 -9.80522e-07 4.6597e-24)
(0.00360655 -1.01815e-06 7.25867e-24)
(0.00363965 -1.04518e-06 4.95023e-26)
(0.00367359 -1.07682e-06 0)
(0.0037081 -1.10434e-06 1.02375e-23)
(0.00374302 -1.12608e-06 -1.022e-23)
(0.00377843 -1.14648e-06 -1.3085e-24)
(0.00381422 -1.16459e-06 1.32713e-24)
(0.00385023 -1.18056e-06 0)
(0.0038863 -1.19252e-06 0)
(0.0039225 -1.20365e-06 8.80916e-23)
(0.00395868 -1.21206e-06 0)
(0.0039948 -1.2208e-06 -2.25758e-23)
(0.00403081 -1.22714e-06 2.25188e-23)
(0.00406663 -1.23363e-06 0)
(0.00410226 -1.24054e-06 -1.79269e-25)
(0.00413767 -1.24738e-06 0)
(0.0041728 -1.2529e-06 1.80968e-25)
(0.00420768 -1.2636e-06 0)
(0.00424228 -1.2683e-06 1.86481e-22)
(0.00427668 -1.28845e-06 0)
(0.00431088 -1.2906e-06 -1.82137e-25)
(0.00434467 -1.31053e-06 -1.86305e-22)
(0.00437839 -1.3201e-06 1.85888e-22)
(0.00441165 -1.3354e-06 -1.85257e-22)
(0.00444464 -1.3483e-06 0)
(0.00447726 -1.36088e-06 0)
(0.00450934 -1.36422e-06 0)
(0.00454068 -1.36973e-06 -1.80452e-22)
(0.00457112 -1.36078e-06 -1.78649e-22)
(0.00460052 -1.35613e-06 2.75939e-24)
(0.00462832 -1.31254e-06 5.41703e-24)
(0.00465405 -1.26657e-06 -5.39552e-24)
(0.00467803 -1.21302e-06 6.54988e-25)
(0.00469859 -1.08324e-06 -8.14573e-25)
(0.00471617 -1.01765e-06 -1.67532e-22)
(0.0047304 -7.93964e-07 5.01819e-24)
(0.00473726 -5.22538e-07 -1.55957e-22)
(0.00473899 -3.27768e-07 0)
(0.0047512 -7.43247e-07 1.15562e-24)
(0.00789471 1.59325e-06 1.0331e-22)
(0.00786304 6.21001e-07 2.06786e-24)
(0.00785581 1.82271e-06 6.69924e-23)
(0.0078274 2.23681e-06 2.56294e-22)
(0.0078056 2.89364e-06 -1.37512e-22)
(0.00776977 3.6639e-06 7.53364e-24)
(0.00772684 4.17027e-06 0)
(0.00767672 4.75049e-06 0)
(0.00761804 5.2437e-06 -3.30925e-22)
(0.00755287 5.67474e-06 1.30417e-23)
(0.0074817 6.02955e-06 3.68558e-22)
(0.00740557 6.32322e-06 3.7863e-22)
(0.00732508 6.54584e-06 1.01768e-24)
(0.00724186 6.69525e-06 3.72077e-22)
(0.00715655 6.79299e-06 -4.41908e-22)
(0.00707021 6.80157e-06 2.07661e-23)
(0.00698378 6.79052e-06 -1.97307e-22)
(0.00689755 6.69743e-06 -3.88354e-23)
(0.00681276 6.57829e-06 0)
(0.00672974 6.40546e-06 -2.70992e-22)
(0.00664951 6.19713e-06 2.64543e-22)
(0.00657209 5.96414e-06 0)
(0.00649793 5.71163e-06 0)
(0.00642735 5.44055e-06 0)
(0.00636075 5.15175e-06 1.34185e-22)
(0.00629806 4.84739e-06 0)
(0.00623951 4.54204e-06 8.37368e-23)
(0.00618513 4.22309e-06 -8.41309e-23)
(0.00613498 3.9083e-06 1.35795e-22)
(0.00608925 3.58894e-06 3.43593e-23)
(0.00604793 3.27239e-06 4.36744e-23)
(0.00601099 2.95707e-06 -4.4336e-23)
(0.00597843 2.64596e-06 -1.54217e-22)
(0.0059502 2.33659e-06 1.85646e-23)
(0.00592631 2.03256e-06 -4.74412e-23)
(0.00590658 1.73313e-06 -9.89505e-24)
(0.0058909 1.44187e-06 4.82021e-24)
(0.00587937 1.15315e-06 -1.55755e-23)
(0.0058719 8.71109e-07 0)
(0.00586832 5.92234e-07 4.39173e-23)
(0.00586846 3.22549e-07 5.74923e-24)
(0.00587246 6.39208e-08 -5.75157e-24)
(0.00588018 -1.93392e-07 1.20472e-23)
(0.00589158 -4.37099e-07 0)
(0.00590659 -6.77161e-07 -2.56286e-23)
(0.00592483 -9.01217e-07 1.677e-24)
(0.00594618 -1.11568e-06 -1.67617e-24)
(0.00597042 -1.31959e-06 -2.61615e-24)
(0.00599744 -1.52599e-06 6.3294e-24)
(0.00602726 -1.73107e-06 4.67557e-25)
(0.00605987 -1.92997e-06 -7.8707e-24)
(0.00609518 -2.12157e-06 0)
(0.00613309 -2.30584e-06 2.04056e-24)
(0.00617335 -2.48146e-06 -1.44819e-23)
(0.00621585 -2.64852e-06 2.11078e-23)
(0.0062604 -2.80435e-06 7.37261e-23)
(0.00630684 -2.95416e-06 -1.31402e-23)
(0.00635499 -3.089e-06 -8.95634e-24)
(0.00640456 -3.2108e-06 4.63746e-23)
(0.00645558 -3.33112e-06 1.88798e-23)
(0.00650801 -3.44575e-06 1.54151e-22)
(0.00656136 -3.53308e-06 -1.56559e-22)
(0.00661551 -3.62345e-06 -2.99899e-23)
(0.00667011 -3.70148e-06 -1.41978e-22)
(0.00672488 -3.76328e-06 -1.6452e-22)
(0.00677985 -3.81913e-06 -1.87894e-22)
(0.0068348 -3.86553e-06 4.22643e-23)
(0.00688949 -3.90379e-06 -2.12341e-23)
(0.00694366 -3.92926e-06 3.46172e-22)
(0.00699732 -3.94985e-06 -4.34425e-23)
(0.00705026 -3.96146e-06 -8.82281e-23)
(0.00710236 -3.97029e-06 4.42299e-23)
(0.00715354 -3.97128e-06 -4.50322e-23)
(0.00720364 -3.96996e-06 9.01631e-23)
(0.00725266 -3.9668e-06 -4.51243e-23)
(0.00730052 -3.96035e-06 0)
(0.00734712 -3.94892e-06 3.65303e-22)
(0.00739246 -3.94544e-06 -7.32185e-22)
(0.00743653 -3.93001e-06 5.49727e-22)
(0.00747937 -3.94091e-06 7.32989e-22)
(0.00752105 -3.91509e-06 -9.16357e-23)
(0.00756123 -3.91939e-06 2.7384e-22)
(0.00760037 -3.90069e-06 -1.82012e-22)
(0.00763798 -3.88863e-06 9.05862e-22)
(0.00767431 -3.8667e-06 7.65444e-22)
(0.0077092 -3.83663e-06 -7.6009e-22)
(0.00774245 -3.78147e-06 0)
(0.00777379 -3.72275e-06 1.31801e-22)
(0.00780306 -3.6264e-06 2.17089e-22)
(0.00782996 -3.52417e-06 -6.64043e-22)
(0.00785388 -3.33389e-06 -6.96638e-22)
(0.00787413 -3.12254e-06 5.15946e-24)
(0.00789116 -2.884e-06 -6.57993e-22)
(0.00790334 -2.49614e-06 0)
(0.00791108 -2.20425e-06 1.6643e-22)
(0.00791431 -1.5898e-06 -9.66548e-24)
(0.00790892 -9.45482e-07 1.47197e-22)
(0.00790104 -5.70791e-07 2.30455e-24)
(0.00790516 -1.16367e-06 2.22387e-24)
(0.0109416 3.05642e-06 -6.35036e-23)
(0.0108964 2.01131e-06 0)
(0.0108816 3.85433e-06 -4.80513e-22)
(0.010848 4.79632e-06 -2.40187e-22)
(0.010823 5.96961e-06 2.68641e-25)
(0.0107839 7.37346e-06 8.7895e-22)
(0.0107363 8.39952e-06 0)
(0.0106807 9.50118e-06 0)
(0.0106151 1.04728e-05 1.17236e-21)
(0.0105417 1.1322e-05 2.2978e-23)
(0.0104612 1.2035e-05 3.16274e-22)
(0.0103749 1.26209e-05 -3.46492e-22)
(0.0102835 1.30788e-05 6.89628e-22)
(0.0101888 1.33957e-05 -3.21509e-22)
(0.0100917 1.36032e-05 3.0967e-22)
(0.00999331 1.36532e-05 -5.97526e-22)
(0.00989483 1.364e-05 2.88726e-22)
(0.00979662 1.34819e-05 -5.93815e-22)
(0.00970013 1.32545e-05 3.45611e-23)
(0.00960581 1.2927e-05 2.97364e-22)
(0.00951481 1.25207e-05 -3.23562e-22)
(0.00942725 1.20609e-05 3.21242e-23)
(0.00934367 1.15555e-05 -3.10115e-23)
(0.00926444 1.10105e-05 3.11509e-23)
(0.00919001 1.04237e-05 -9.21475e-23)
(0.00912039 9.80482e-06 -3.06904e-23)
(0.00905584 9.17588e-06 -1.37707e-22)
(0.00899644 8.51829e-06 2.45864e-22)
(0.00894227 7.86348e-06 -1.24066e-22)
(0.00889353 7.19698e-06 -2.35209e-22)
(0.00885024 6.53213e-06 2.7057e-22)
(0.00881238 5.86792e-06 -1.60685e-23)
(0.00877993 5.20919e-06 1.32165e-22)
(0.00875287 4.55313e-06 0)
(0.00873118 3.90598e-06 1.38497e-22)
(0.0087147 3.26631e-06 9.00211e-24)
(0.0087033 2.64297e-06 2.46127e-25)
(0.00869705 2.02462e-06 1.31493e-22)
(0.00869586 1.41849e-06 1.64266e-22)
(0.00869957 8.18666e-07 -1.1955e-22)
(0.00870798 2.38497e-07 -5.21314e-24)
(0.00872119 -3.23274e-07 5.21169e-24)
(0.00873903 -8.78264e-07 0)
(0.00876142 -1.40607e-06 0)
(0.00878827 -1.92377e-06 2.31775e-23)
(0.00881914 -2.40844e-06 0)
(0.00885386 -2.86958e-06 -4.91827e-23)
(0.00889212 -3.30549e-06 0)
(0.00893368 -3.73815e-06 -6.51158e-24)
(0.0089785 -4.17125e-06 -2.09237e-25)
(0.00902665 -4.5957e-06 8.62465e-24)
(0.00907799 -5.00203e-06 -5.32304e-24)
(0.00913235 -5.39168e-06 3.57489e-24)
(0.00918942 -5.76064e-06 0)
(0.00924899 -6.10918e-06 7.70947e-24)
(0.00931082 -6.4333e-06 -7.79057e-23)
(0.00937466 -6.73959e-06 7.86997e-24)
(0.00944024 -7.01557e-06 0)
(0.0095072 -7.26455e-06 1.16133e-22)
(0.00957549 -7.50331e-06 1.01688e-22)
(0.00964493 -7.72619e-06 -1.21069e-22)
(0.009715 -7.8973e-06 1.22894e-22)
(0.00978543 -8.06431e-06 -2.8644e-22)
(0.00985584 -8.20632e-06 1.63375e-22)
(0.00992586 -8.31422e-06 1.47593e-22)
(0.00999541 -8.40656e-06 1.11981e-22)
(0.0100642 -8.47673e-06 3.76281e-23)
(0.0101319 -8.52883e-06 -3.86802e-23)
(0.0101982 -8.55342e-06 3.88457e-22)
(0.0102629 -8.56532e-06 -6.672e-22)
(0.0103259 -8.55842e-06 -3.98777e-23)
(0.010387 -8.54193e-06 3.97641e-23)
(0.010446 -8.50941e-06 -8.10204e-23)
(0.0105027 -8.46957e-06 8.07826e-23)
(0.0105571 -8.42343e-06 -8.19995e-23)
(0.010609 -8.3688e-06 8.17491e-23)
(0.0106585 -8.30366e-06 -1.07164e-21)
(0.0107053 -8.24653e-06 1.32227e-21)
(0.0107495 -8.17282e-06 -1.90527e-21)
(0.0107911 -8.1323e-06 -6.63221e-22)
(0.0108302 -8.03922e-06 -1.32605e-21)
(0.0108665 -7.98114e-06 -1.32435e-21)
(0.0109004 -7.8878e-06 1.32109e-21)
(0.0109314 -7.7966e-06 -6.58175e-22)
(0.0109598 -7.6833e-06 6.54983e-22)
(0.0109854 -7.54745e-06 6.51036e-22)
(0.011008 -7.3652e-06 -1.29234e-21)
(0.0110273 -7.1642e-06 -1.28096e-21)
(0.0110431 -6.8939e-06 -3.94707e-23)
(0.0110552 -6.59306e-06 7.047e-22)
(0.0110628 -6.14969e-06 5.79163e-22)
(0.0110654 -5.64768e-06 0)
(0.0110633 -5.08708e-06 1.79434e-21)
(0.0110556 -4.30096e-06 -7.94712e-24)
(0.0110425 -3.60166e-06 9.07251e-24)
(0.0110248 -2.4435e-06 8.7097e-24)
(0.0109996 -1.28689e-06 -8.69197e-24)
(0.0109753 -5.79887e-07 1.01298e-27)
(0.0109638 -1.06762e-06 -1.02689e-24)
(0.0136914 5.14155e-06 -6.7009e-27)
(0.0136332 4.43124e-06 3.34769e-24)
(0.0136079 6.95684e-06 -3.36482e-24)
(0.0135675 8.64385e-06 0)
(0.0135366 1.04541e-05 -7.87434e-22)
(0.0134927 1.25941e-05 -7.59709e-22)
(0.0134398 1.42907e-05 0)
(0.0133787 1.6017e-05 0)
(0.0133072 1.75675e-05 -6.77168e-22)
(0.0132276 1.89192e-05 -6.7015e-22)
(0.0131407 2.00636e-05 -6.0413e-22)
(0.0130478 2.09968e-05 0)
(0.0129497 2.17295e-05 -1.14909e-21)
(0.0128484 2.22334e-05 0)
(0.0127448 2.25523e-05 -5.30125e-22)
(0.0126402 2.26354e-05 5.10332e-22)
(0.0125359 2.25889e-05 4.31762e-22)
(0.0124322 2.23277e-05 5.36413e-22)
(0.0123308 2.1936e-05 4.61232e-22)
(0.012232 2.13885e-05 0)
(0.0121372 2.07067e-05 4.37655e-22)
(0.0120463 1.99322e-05 0)
(0.0119602 1.90771e-05 -4.21337e-22)
(0.011879 1.81546e-05 -4.15892e-22)
(0.0118033 1.716e-05 2.56677e-23)
(0.0117331 1.61131e-05 -1.3178e-25)
(0.0116687 1.50413e-05 -2.56538e-23)
(0.0116102 1.39239e-05 2.05569e-22)
(0.0115576 1.28049e-05 2.59827e-23)
(0.0115112 1.16659e-05 1.83078e-22)
(0.011471 1.05261e-05 -2.25299e-22)
(0.0114368 9.38628e-06 1.33651e-23)
(0.0114089 8.25396e-06 1.3869e-23)
(0.0113869 7.12757e-06 -1.38809e-23)
(0.011371 6.01392e-06 -1.14833e-22)
(0.011361 4.90993e-06 -2.35458e-22)
(0.0113568 3.83108e-06 0)
(0.0113584 2.76203e-06 -1.32115e-22)
(0.0113657 1.71382e-06 -1.1993e-22)
(0.0113786 6.78659e-07 5.74335e-23)
(0.0113969 -3.23443e-07 8.34287e-24)
(0.0114205 -1.2973e-06 -8.86116e-24)
(0.0114492 -2.25368e-06 8.85264e-24)
(0.011483 -3.16575e-06 0)
(0.0115218 -4.05704e-06 0)
(0.011565 -4.89456e-06 0)
(0.0116126 -5.68826e-06 4.04689e-23)
(0.0116641 -6.4321e-06 0)
(0.0117193 -7.15378e-06 -2.21014e-23)
(0.0117778 -7.87862e-06 6.78504e-25)
(0.0118398 -8.59603e-06 -1.4353e-24)
(0.0119052 -9.27839e-06 -1.51406e-24)
(0.0119738 -9.92962e-06 -3.10459e-24)
(0.0120451 -1.05424e-05 6.03712e-24)
(0.012119 -1.11171e-05 1.00304e-22)
(0.012195 -1.16486e-05 0)
(0.012273 -1.21441e-05 1.32924e-23)
(0.0123525 -1.25896e-05 3.1336e-25)
(0.0124332 -1.29889e-05 -1.23268e-22)
(0.0125149 -1.33615e-05 -1.25804e-22)
(0.0125974 -1.3702e-05 1.44169e-23)
(0.01268 -1.39634e-05 1.49717e-23)
(0.0127625 -1.42065e-05 2.07473e-22)
(0.0128444 -1.44078e-05 -3.03728e-23)
(0.0129254 -1.4553e-05 3.03212e-23)
(0.0130053 -1.46678e-05 3.13122e-23)
(0.0130836 -1.47437e-05 -5.67186e-22)
(0.01316 -1.4788e-05 3.17028e-23)
(0.0132342 -1.47868e-05 -5.17654e-22)
(0.013306 -1.47615e-05 4.57959e-22)
(0.0133751 -1.4705e-05 -7.98524e-25)
(0.0134413 -1.46287e-05 6.65012e-23)
(0.0135043 -1.45261e-05 0)
(0.013564 -1.44083e-05 1.15787e-21)
(0.0136203 -1.42776e-05 -6.83014e-23)
(0.0136729 -1.41341e-05 0)
(0.013722 -1.3976e-05 5.55452e-22)
(0.0137673 -1.38239e-05 -5.58035e-22)
(0.0138088 -1.36511e-05 1.12e-21)
(0.0138465 -1.35097e-05 0)
(0.0138805 -1.33051e-05 1.26527e-21)
(0.0139103 -1.31296e-05 1.12539e-21)
(0.0139364 -1.29081e-05 -1.26484e-21)
(0.0139584 -1.2677e-05 0)
(0.0139765 -1.2407e-05 -1.18906e-21)
(0.0139904 -1.20939e-05 -1.04482e-21)
(0.014 -1.17092e-05 1.17763e-21)
(0.0140049 -1.12803e-05 2.133e-21)
(0.014005 -1.0745e-05 -1.05786e-21)
(0.0139998 -1.01421e-05 -3.39123e-23)
(0.013989 -9.34476e-06 1.0686e-21)
(0.0139716 -8.43659e-06 -1.06267e-21)
(0.0139486 -7.4292e-06 -1.0307e-21)
(0.0139191 -6.12757e-06 0)
(0.0138838 -4.86864e-06 -9.87691e-22)
(0.0138443 -3.07551e-06 -7.90733e-24)
(0.0137988 -1.2851e-06 -7.59624e-24)
(0.0137568 -5.09733e-08 -8.86699e-28)
(0.0137276 -1.39234e-07 -8.98725e-25)
(0.0159937 7.95094e-06 5.71144e-27)
(0.0159228 7.8946e-06 -5.73458e-27)
(0.0158846 1.11327e-05 3.63623e-22)
(0.015834 1.37107e-05 6.86589e-22)
(0.0157927 1.62376e-05 -6.66677e-22)
(0.0157393 1.91593e-05 1.28281e-21)
(0.015677 2.16085e-05 0)
(0.0156067 2.40039e-05 -1.18258e-21)
(0.0155264 2.61737e-05 -1.15101e-21)
(0.0154383 2.80566e-05 5.60229e-22)
(0.0153434 2.96513e-05 1.03955e-21)
(0.015243 3.09357e-05 1.02542e-21)
(0.0151381 3.19362e-05 1.39812e-21)
(0.0150305 3.26122e-05 0)
(0.0149213 3.30169e-05 -4.37422e-22)
(0.0148118 3.31024e-05 -5.14884e-23)
(0.0147031 3.29751e-05 -3.52625e-22)
(0.0145958 3.25601e-05 4.79104e-23)
(0.0144914 3.19427e-05 -4.71548e-22)
(0.0143905 3.11092e-05 7.78636e-22)
(0.014294 3.00792e-05 -3.56483e-22)
(0.0142024 2.89106e-05 4.31312e-23)
(0.014116 2.76217e-05 2.98821e-22)
(0.0140354 2.62335e-05 6.32264e-22)
(0.0139609 2.47415e-05 4.19416e-23)
(0.0138925 2.31753e-05 -3.31563e-22)
(0.0138306 2.15661e-05 2.06915e-23)
(0.0137752 1.98956e-05 -3.52255e-22)
(0.0137263 1.82172e-05 3.33514e-22)
(0.0136842 1.65121e-05 2.11704e-23)
(0.0136488 1.48036e-05 3.19809e-22)
(0.01362 1.30941e-05 0)
(0.013598 1.1394e-05 0)
(0.0135825 9.70339e-06 -1.1386e-23)
(0.0135736 8.03018e-06 -2.73138e-25)
(0.0135711 6.37159e-06 3.77374e-22)
(0.0135749 4.74963e-06 1.19573e-23)
(0.013585 3.14582e-06 -1.99193e-22)
(0.0136013 1.57332e-06 2.04917e-22)
(0.0136235 2.38153e-08 0)
(0.0136516 -1.4765e-06 -1.01757e-22)
(0.0136853 -2.93539e-06 -6.89256e-24)
(0.0137245 -4.3616e-06 -7.32571e-24)
(0.013769 -5.72433e-06 7.32015e-24)
(0.0138187 -7.05211e-06 3.89029e-24)
(0.0138733 -8.3051e-06 -7.89489e-24)
(0.0139324 -9.49398e-06 -6.10407e-23)
(0.0139959 -1.06136e-05 -2.12495e-24)
(0.0140635 -1.16998e-05 2.12501e-24)
(0.014135 -1.27761e-05 5.62489e-25)
(0.01421 -1.38247e-05 -5.62115e-25)
(0.0142885 -1.48183e-05 0)
(0.01437 -1.57616e-05 -7.7051e-23)
(0.0144542 -1.66444e-05 0)
(0.0145409 -1.74666e-05 -8.1124e-23)
(0.0146295 -1.82226e-05 1.66264e-22)
(0.0147198 -1.89195e-05 0)
(0.0148114 -1.95435e-05 1.74223e-22)
(0.0149039 -2.00979e-05 -1.12583e-23)
(0.0149971 -2.06019e-05 -1.12497e-23)
(0.0150904 -2.10529e-05 3.71502e-22)
(0.0151836 -2.13971e-05 3.78901e-22)
(0.015276 -2.17023e-05 0)
(0.0153674 -2.19459e-05 -2.47957e-23)
(0.0154574 -2.2109e-05 4.50031e-22)
(0.0155455 -2.22224e-05 -2.52051e-23)
(0.0156315 -2.22772e-05 1.29133e-21)
(0.0157149 -2.2284e-05 -1.04804e-22)
(0.0157954 -2.22251e-05 -7.97613e-22)
(0.0158728 -2.21275e-05 -5.41985e-23)
(0.0159466 -2.19841e-05 5.41938e-23)
(0.0160167 -2.18075e-05 0)
(0.0160828 -2.15942e-05 -8.36021e-22)
(0.0161447 -2.13587e-05 -1.01317e-21)
(0.0162024 -2.11045e-05 5.65167e-23)
(0.0162556 -2.08315e-05 0)
(0.0163043 -2.05374e-05 1.95807e-21)
(0.0163484 -2.02427e-05 -2.31619e-22)
(0.0163877 -1.99223e-05 -1.62962e-21)
(0.0164222 -1.96245e-05 -2.33681e-22)
(0.016452 -1.92574e-05 1.17004e-22)
(0.0164764 -1.8903e-05 1.17519e-22)
(0.0164961 -1.84923e-05 -1.99787e-21)
(0.0165104 -1.80533e-05 0)
(0.0165196 -1.75549e-05 1.75996e-21)
(0.0165234 -1.69879e-05 1.11166e-21)
(0.0165216 -1.63212e-05 -1.1651e-22)
(0.0165137 -1.55763e-05 -8.69342e-22)
(0.0164998 -1.46865e-05 8.6372e-22)
(0.0164794 -1.36846e-05 5.72949e-23)
(0.016452 -1.24429e-05 -9.03911e-22)
(0.0164169 -1.10325e-05 2.6794e-21)
(0.0163751 -9.47941e-06 0)
(0.0163263 -7.57951e-06 0)
(0.0162713 -5.66479e-06 8.52926e-22)
(0.0162124 -3.20306e-06 -8.30249e-22)
(0.016149 -7.19115e-07 -6.47231e-24)
(0.0160907 1.18172e-06 7.56122e-28)
(0.0160448 1.73239e-06 -7.68419e-25)
(0.01787 1.16173e-05 0)
(0.0177853 1.2447e-05 6.34086e-22)
(0.0177321 1.64244e-05 -2.41922e-24)
(0.0176683 1.99808e-05 5.86669e-22)
(0.0176131 2.3276e-05 2.24445e-21)
(0.0175468 2.69982e-05 -1.07217e-21)
(0.0174721 3.02367e-05 -1.03952e-21)
(0.01739 3.33126e-05 9.86751e-22)
(0.0172986 3.61018e-05 9.47209e-22)
(0.0172004 3.85045e-05 2.76571e-23)
(0.0170962 4.05302e-05 -8.91729e-22)
(0.0169876 4.21388e-05 -8.25092e-22)
(0.0168756 4.3372e-05 -8.36378e-22)
(0.0167619 4.4178e-05 4.81743e-23)
(0.0166477 4.46177e-05 7.21407e-22)
(0.016534 4.4651e-05 6.91948e-22)
(0.0164222 4.43802e-05 6.6486e-22)
(0.0163129 4.37495e-05 -3.93534e-23)
(0.0162073 4.284e-05 3.93655e-23)
(0.016106 4.16529e-05 -6.37019e-22)
(0.0160099 4.02041e-05 -5.46857e-22)
(0.0159194 3.85653e-05 0)
(0.0158349 3.6763e-05 0)
(0.0157569 3.48276e-05 -2.75355e-22)
(0.0156856 3.27568e-05 3.39229e-23)
(0.0156212 3.05892e-05 2.70378e-22)
(0.0155639 2.83595e-05 -5.06697e-23)
(0.0155136 2.6054e-05 -5.23878e-22)
(0.0154706 2.37333e-05 -2.5484e-22)
(0.0154348 2.13796e-05 -3.08805e-22)
(0.0154062 1.90197e-05 -5.21169e-22)
(0.0153848 1.66586e-05 -2.82085e-22)
(0.0153705 1.43099e-05 -3.05479e-22)
(0.0153633 1.19763e-05 3.12346e-22)
(0.0153631 9.66665e-06 -1.85817e-23)
(0.0153698 7.37785e-06 -4.5272e-22)
(0.0153831 5.13715e-06 -9.76764e-24)
(0.015403 2.92622e-06 1.62832e-22)
(0.0154294 7.60675e-07 -3.24603e-22)
(0.0154621 -1.36817e-06 1.62043e-22)
(0.0155007 -3.4302e-06 8.90158e-23)
(0.0155453 -5.43502e-06 -1.77749e-22)
(0.0155955 -7.38851e-06 -1.18389e-23)
(0.0156512 -9.25837e-06 6.01166e-24)
(0.0157122 -1.10762e-05 -1.00746e-22)
(0.0157782 -1.27994e-05 1.03904e-22)
(0.0158489 -1.44399e-05 5.35743e-23)
(0.0159242 -1.59913e-05 0)
(0.0160038 -1.74815e-05 4.31196e-23)
(0.0160876 -1.89365e-05 -4.51157e-25)
(0.0161748 -2.03435e-05 -3.0154e-23)
(0.0162652 -2.1672e-05 0)
(0.0163585 -2.29263e-05 9.05054e-27)
(0.0164543 -2.4094e-05 0)
(0.0165523 -2.51742e-05 0)
(0.0166519 -2.61612e-05 -2.75884e-22)
(0.016753 -2.70617e-05 -1.41365e-22)
(0.0168549 -2.7863e-05 -1.44787e-22)
(0.0169574 -2.85673e-05 -2.96264e-22)
(0.0170601 -2.9192e-05 -2.83771e-22)
(0.0171625 -2.97377e-05 -6.38059e-22)
(0.0172642 -3.01487e-05 -2.95962e-22)
(0.0173647 -3.04944e-05 -6.43931e-22)
(0.0174636 -3.07552e-05 -6.76949e-22)
(0.0175604 -3.09094e-05 -1.00297e-21)
(0.017655 -3.09909e-05 -6.80292e-22)
(0.0177467 -3.09915e-05 -6.91681e-22)
(0.0178353 -3.09248e-05 4.4228e-23)
(0.0179203 -3.07706e-05 1.38204e-21)
(0.0180015 -3.05602e-05 7.23248e-22)
(0.0180785 -3.02879e-05 0)
(0.0181512 -2.997e-05 1.53023e-21)
(0.0182192 -2.96065e-05 2.29753e-21)
(0.0182823 -2.92106e-05 -9.42171e-23)
(0.0183406 -2.87861e-05 -9.59348e-23)
(0.0183937 -2.83356e-05 -7.36247e-25)
(0.0184415 -2.78573e-05 -1.45621e-21)
(0.0184839 -2.73686e-05 0)
(0.0185207 -2.68466e-05 1.57192e-21)
(0.0185518 -2.63306e-05 9.88778e-23)
(0.0185773 -2.57402e-05 2.94575e-25)
(0.0185965 -2.51384e-05 -1.98592e-22)
(0.0186099 -2.44686e-05 1.69096e-21)
(0.018617 -2.3746e-05 1.69161e-21)
(0.0186179 -2.29399e-05 -3.28138e-21)
(0.0186123 -2.20355e-05 -9.90808e-23)
(0.0185999 -2.10015e-05 1.6817e-21)
(0.0185804 -1.98502e-05 -1.57534e-21)
(0.0185538 -1.85158e-05 0)
(0.0185195 -1.70218e-05 -2.41617e-23)
(0.0184773 -1.52491e-05 2.39932e-25)
(0.0184265 -1.32502e-05 -1.49707e-21)
(0.0183681 -1.10655e-05 0)
(0.0183022 -8.49882e-06 1.47891e-21)
(0.0182298 -5.85566e-06 -1.12623e-23)
(0.0181537 -2.68952e-06 7.25442e-22)
(0.0180737 5.6457e-07 0)
(0.0179992 3.25613e-06 0)
(0.0179366 4.61594e-06 6.54974e-25)
(0.019403 1.62687e-05 -1.38746e-22)
(0.0193041 1.81379e-05 7.58658e-26)
(0.0192354 2.28794e-05 1.04207e-21)
(0.0191574 2.74647e-05 -2.00355e-21)
(0.0190873 3.15607e-05 -9.59451e-22)
(0.0190073 3.60858e-05 1.83534e-21)
(0.0189199 4.0119e-05 8.79543e-22)
(0.0188259 4.38677e-05 -1.67667e-21)
(0.0187237 4.72571e-05 1.6245e-21)
(0.0186158 5.01471e-05 -1.55027e-21)
(0.0185033 5.25599e-05 -2.2226e-23)
(0.0183877 5.44413e-05 6.45654e-23)
(0.0182699 5.58487e-05 -4.2308e-23)
(0.0181518 5.67236e-05 0)
(0.0180343 5.71319e-05 1.24574e-21)
(0.0179186 5.70455e-05 -6.16109e-22)
(0.017806 5.65595e-05 -5.56297e-22)
(0.0176969 5.56419e-05 -3.29225e-23)
(0.0175925 5.43684e-05 -9.70666e-22)
(0.0174932 5.27581e-05 -3.18678e-23)
(0.0173999 5.08239e-05 4.88279e-22)
(0.0173128 4.86432e-05 -4.76968e-22)
(0.0172325 4.62488e-05 0)
(0.0171593 4.36859e-05 0)
(0.0170935 4.09568e-05 0)
(0.0170352 3.81081e-05 0)
(0.0169846 3.51778e-05 0)
(0.0169416 3.21589e-05 4.81378e-22)
(0.0169063 2.91164e-05 -2.84148e-23)
(0.0168787 2.60363e-05 2.3013e-22)
(0.0168587 2.29484e-05 2.47891e-22)
(0.0168464 1.98599e-05 6.96461e-22)
(0.0168415 1.67872e-05 2.4168e-22)
(0.0168441 1.37361e-05 -4.93978e-22)
(0.0168539 1.07178e-05 0)
(0.0168708 7.73061e-06 2.59629e-22)
(0.0168947 4.80524e-06 -2.6682e-22)
(0.0169253 1.92433e-06 -2.74603e-22)
(0.0169626 -8.94391e-07 1.50453e-22)
(0.0170062 -3.65919e-06 -1.54861e-22)
(0.017056 -6.33772e-06 -9.55155e-24)
(0.0171117 -8.94041e-06 9.58905e-24)
(0.0171732 -1.147e-05 1.60328e-22)
(0.0172401 -1.38944e-05 -5.25441e-24)
(0.0173124 -1.62459e-05 9.61379e-23)
(0.0173896 -1.84813e-05 -9.36327e-23)
(0.0174715 -2.0613e-05 0)
(0.0175579 -2.26368e-05 1.48905e-24)
(0.0176484 -2.45761e-05 -2.56904e-23)
(0.0177426 -2.6441e-05 7.79176e-25)
(0.0178402 -2.82198e-05 4.40616e-27)
(0.0179406 -2.98924e-05 3.34993e-24)
(0.0180437 -3.14618e-05 5.44636e-23)
(0.0181489 -3.2914e-05 -3.44597e-24)
(0.0182559 -3.42473e-05 -7.26487e-24)
(0.0183642 -3.54564e-05 1.25045e-22)
(0.0184735 -3.65472e-05 1.3604e-22)
(0.0185833 -3.75085e-05 -1.52832e-23)
(0.0186932 -3.83416e-05 2.69325e-22)
(0.0188028 -3.90615e-05 2.43094e-22)
(0.0189115 -3.96725e-05 7.94374e-22)
(0.0190191 -4.01204e-05 0)
(0.019125 -4.0472e-05 5.51852e-22)
(0.0192288 -4.07119e-05 5.62619e-22)
(0.01933 -4.08176e-05 1.14621e-21)
(0.0194283 -4.08247e-05 5.8337e-22)
(0.0195233 -4.07266e-05 -5.93253e-22)
(0.0196146 -4.05394e-05 0)
(0.0197019 -4.02427e-05 -6.12245e-22)
(0.0197847 -3.98711e-05 6.21086e-22)
(0.0198628 -3.94236e-05 1.17956e-21)
(0.0199361 -3.89175e-05 -2.46823e-21)
(0.0200042 -3.83544e-05 -2.57527e-21)
(0.0200669 -3.77474e-05 0)
(0.0201241 -3.70999e-05 -1.3951e-21)
(0.0201756 -3.64153e-05 8.2407e-23)
(0.0202212 -3.56933e-05 0)
(0.0202606 -3.49478e-05 1.34275e-21)
(0.0202939 -3.41602e-05 8.45927e-23)
(0.0203206 -3.33576e-05 3.3569e-25)
(0.020341 -3.24758e-05 -8.49698e-23)
(0.0203544 -3.15532e-05 2.73102e-21)
(0.0203612 -3.05496e-05 2.64969e-21)
(0.0203609 -2.94647e-05 -1.19722e-21)
(0.0203536 -2.82701e-05 1.28171e-21)
(0.0203389 -2.69453e-05 8.51499e-23)
(0.0203166 -2.54605e-05 -1.44536e-21)
(0.0202863 -2.38179e-05 1.35409e-21)
(0.020248 -2.19563e-05 0)
(0.0202013 -1.9888e-05 2.67114e-21)
(0.0201459 -1.75084e-05 0)
(0.0200814 -1.48483e-05 0)
(0.0200086 -1.1963e-05 0)
(0.0199279 -8.67358e-06 -1.26213e-21)
(0.0198404 -5.24497e-06 -9.86207e-24)
(0.0197492 -1.33615e-06 9.50091e-24)
(0.019654 2.73659e-06 -4.86032e-24)
(0.0195638 6.28377e-06 -5.93419e-22)
(0.0194847 8.57542e-06 -1.11207e-27)
(0.0206622 2.19864e-05 1.19904e-22)
(0.0205506 2.49922e-05 -4.68042e-22)
(0.0204679 3.05033e-05 -8.98717e-22)
(0.0203769 3.61299e-05 1.72544e-21)
(0.0202931 4.10293e-05 -6.32156e-24)
(0.0202009 4.63319e-05 -1.56721e-21)
(0.0201024 5.11337e-05 1.50223e-21)
(0.0199986 5.55235e-05 1.44631e-21)
(0.019888 5.94747e-05 -1.3797e-21)
(0.0197729 6.28011e-05 -2.92997e-25)
(0.0196545 6.55406e-05 0)
(0.0195344 6.76315e-05 -1.14946e-21)
(0.0194136 6.91452e-05 -3.61584e-23)
(0.0192936 7.00183e-05 -1.047e-21)
(0.0191755 7.03213e-05 -1.06586e-21)
(0.0190604 7.004e-05 -6.06691e-23)
(0.0189495 6.92625e-05 1.01192e-21)
(0.018843 6.79831e-05 -9.16498e-22)
(0.0187423 6.62713e-05 8.85615e-22)
(0.0186475 6.41686e-05 -8.58896e-22)
(0.0185594 6.16895e-05 8.35977e-22)
(0.0184779 5.89035e-05 4.08518e-22)
(0.0184038 5.58424e-05 -8.26774e-22)
(0.0183374 5.25736e-05 3.38971e-25)
(0.0182789 4.91089e-05 2.46011e-23)
(0.0182284 4.55021e-05 0)
(0.018186 4.17945e-05 0)
(0.0181517 3.79869e-05 3.89802e-22)
(0.0181254 3.41474e-05 3.67859e-22)
(0.0181072 3.0267e-05 4.96334e-23)
(0.0180969 2.63787e-05 -2.49959e-23)
(0.0180944 2.2493e-05 -4.09357e-22)
(0.0180997 1.86293e-05 1.31857e-23)