/*--------------------------------*- C++ -*----------------------------------*\
| =========                 |                                                 |
| \\      /  F ield         | OpenFOAM: The Open Source CFD Toolbox           |
|  \\    /   O peration     | Version:  2212                                  |
|   \\  /    A nd           | Website:  www.openfoam.com                      |
|    \\/     M anipulation  |                                                 |
\*---------------------------------------------------------------------------*/
FoamFile
{
    version     2.0;
    format      ascii;
    arch        "LSB;label=32;scalar=64";
    class       volScalarField;
    location    "0";
    object      V;
}
// * * * * * * * * * * * * * * * * * * * * * * * * * * * * * * * * * * * * * //

dimensions      [0 3 0 0 0 0 0];

internalField   nonuniform List<scalar> 
14751
(
3.6362e-05
3.63614e-05
3.63631e-05
3.63645e-05
3.63656e-05
3.63665e-05
3.63674e-05
3.63679e-05
3.63679e-05
3.63679e-05
3.63679e-05
3.63665e-05
3.63635e-05
3.6361e-05
3.6359e-05
3.63576e-05
3.63568e-05
3.63559e-05
3.63551e-05
3.63552e-05
3.63563e-05
3.63573e-05
3.63585e-05
3.63607e-05
3.63642e-05
3.63672e-05
3.63696e-05
3.63709e-05
3.63713e-05
3.63717e-05
3.63721e-05
3.63725e-05
3.63729e-05
3.63732e-05
3.63736e-05
3.63732e-05
3.6372e-05
3.63708e-05
3.63696e-05
3.63672e-05
3.63634e-05
3.63599e-05
3.63573e-05
3.63558e-05
3.63553e-05
3.63549e-05
3.63545e-05
3.63541e-05
3.63538e-05
3.63534e-05
3.6353e-05
3.6353e-05
3.63534e-05
3.63538e-05
3.63541e-05
3.63545e-05
3.63549e-05
3.63553e-05
3.63558e-05
3.63572e-05
3.63599e-05
3.63633e-05
3.63671e-05
3.63694e-05
3.63707e-05
3.63719e-05
3.6373e-05
3.63736e-05
3.63735e-05
3.63734e-05
3.63733e-05
3.63732e-05
3.63731e-05
3.6373e-05
3.63729e-05
3.63728e-05
3.63727e-05
3.63726e-05
3.63725e-05
3.63723e-05
3.63722e-05
3.63721e-05
3.6372e-05
3.63716e-05
3.63709e-05
3.63701e-05
3.63693e-05
3.63681e-05
3.63663e-05
3.6364e-05
3.63613e-05
3.63602e-05
3.63603e-05
3.63605e-05
3.63606e-05
3.6361e-05
3.63615e-05
3.63621e-05
3.63631e-05
3.79836e-05
3.79982e-05
3.8068e-05
3.81816e-05
3.83324e-05
3.84986e-05
3.8674e-05
3.88562e-05
3.90409e-05
3.92269e-05
3.94133e-05
3.95983e-05
3.97808e-05
3.99606e-05
4.01367e-05
4.03088e-05
4.04761e-05
4.0638e-05
4.07944e-05
4.09454e-05
4.1091e-05
4.12305e-05
4.13634e-05
4.149e-05
4.16102e-05
4.17237e-05
4.18304e-05
4.19301e-05
4.2023e-05
4.21097e-05
4.21903e-05
4.22651e-05
4.23342e-05
4.23979e-05
4.24564e-05
4.25094e-05
4.25573e-05
4.26007e-05
4.26397e-05
4.26742e-05
4.27042e-05
4.27307e-05
4.27536e-05
4.27735e-05
4.27906e-05
4.28044e-05
4.28151e-05
4.28226e-05
4.28271e-05
4.28286e-05
4.2827e-05
4.28226e-05
4.28153e-05
4.2805e-05
4.27914e-05
4.27746e-05
4.27544e-05
4.27308e-05
4.27035e-05
4.2673e-05
4.26391e-05
4.26011e-05
4.2559e-05
4.25119e-05
4.24597e-05
4.24025e-05
4.23401e-05
4.2272e-05
4.21979e-05
4.21179e-05
4.20319e-05
4.19396e-05
4.18409e-05
4.17356e-05
4.16237e-05
4.15052e-05
4.138e-05
4.12481e-05
4.11094e-05
4.09645e-05
4.08131e-05
4.06557e-05
4.04927e-05
4.03243e-05
4.01513e-05
3.99742e-05
3.97935e-05
3.961e-05
3.94248e-05
3.9239e-05
3.90535e-05
3.88702e-05
3.86919e-05
3.85207e-05
3.83616e-05
3.82193e-05
3.81023e-05
3.8023e-05
3.79943e-05
3.96717e-05
3.96966e-05
3.98201e-05
4.00206e-05
4.02875e-05
4.05824e-05
4.08936e-05
4.1218e-05
4.15476e-05
4.18809e-05
4.22161e-05
4.25506e-05
4.28823e-05
4.32099e-05
4.35312e-05
4.38457e-05
4.41519e-05
4.44491e-05
4.47371e-05
4.50156e-05
4.52843e-05
4.55426e-05
4.57893e-05
4.60243e-05
4.62475e-05
4.64584e-05
4.66573e-05
4.6844e-05
4.70187e-05
4.71819e-05
4.73339e-05
4.7475e-05
4.76056e-05
4.77261e-05
4.78368e-05
4.79378e-05
4.80296e-05
4.81128e-05
4.81879e-05
4.82549e-05
4.83142e-05
4.83665e-05
4.84118e-05
4.84508e-05
4.84837e-05
4.85103e-05
4.8531e-05
4.85457e-05
4.85545e-05
4.85575e-05
4.85548e-05
4.85464e-05
4.85322e-05
4.85121e-05
4.8486e-05
4.84536e-05
4.84149e-05
4.83695e-05
4.83173e-05
4.82582e-05
4.8192e-05
4.8118e-05
4.80358e-05
4.79449e-05
4.7845e-05
4.77357e-05
4.76167e-05
4.74874e-05
4.73473e-05
4.71964e-05
4.70342e-05
4.68604e-05
4.66749e-05
4.64774e-05
4.62679e-05
4.60465e-05
4.58129e-05
4.55674e-05
4.531e-05
4.50418e-05
4.47628e-05
4.44734e-05
4.41747e-05
4.38674e-05
4.35523e-05
4.32306e-05
4.29031e-05
4.25714e-05
4.22379e-05
4.19048e-05
4.15735e-05
4.12465e-05
4.09286e-05
4.06234e-05
4.03399e-05
4.00865e-05
3.98792e-05
3.97398e-05
3.96905e-05
4.14314e-05
4.14647e-05
4.16293e-05
4.18979e-05
4.22561e-05
4.26529e-05
4.30715e-05
4.3508e-05
4.39515e-05
4.44011e-05
4.48546e-05
4.53092e-05
4.57616e-05
4.62088e-05
4.66479e-05
4.70777e-05
4.74967e-05
4.7904e-05
4.82997e-05
4.86828e-05
4.90532e-05
4.941e-05
4.97517e-05
5.00771e-05
5.03859e-05
5.06785e-05
5.09548e-05
5.12148e-05
5.14588e-05
5.16869e-05
5.18996e-05
5.20972e-05
5.22802e-05
5.24492e-05
5.26045e-05
5.27467e-05
5.28764e-05
5.29941e-05
5.31003e-05
5.31959e-05
5.32812e-05
5.33562e-05
5.34214e-05
5.34771e-05
5.35237e-05
5.35615e-05
5.35908e-05
5.36118e-05
5.36244e-05
5.36289e-05
5.36252e-05
5.36133e-05
5.35932e-05
5.35646e-05
5.35275e-05
5.34817e-05
5.34268e-05
5.33627e-05
5.32888e-05
5.32049e-05
5.31104e-05
5.30047e-05
5.28874e-05
5.27585e-05
5.26174e-05
5.24633e-05
5.22957e-05
5.2114e-05
5.19177e-05
5.17063e-05
5.14794e-05
5.12366e-05
5.09777e-05
5.07023e-05
5.04106e-05
5.01027e-05
4.97784e-05
4.94379e-05
4.90817e-05
4.87117e-05
4.83278e-05
4.79305e-05
4.75215e-05
4.71016e-05
4.66718e-05
4.62333e-05
4.57874e-05
4.53365e-05
4.48843e-05
4.4434e-05
4.39875e-05
4.35475e-05
4.31193e-05
4.27077e-05
4.23253e-05
4.1983e-05
4.17046e-05
4.15193e-05
4.14549e-05
4.32623e-05
4.33024e-05
4.35014e-05
4.38256e-05
4.42576e-05
4.47368e-05
4.52421e-05
4.57685e-05
4.63032e-05
4.68461e-05
4.73952e-05
4.79466e-05
4.84964e-05
4.904e-05
4.95741e-05
5.00968e-05
5.06066e-05
5.11028e-05
5.15857e-05
5.20542e-05
5.25081e-05
5.29467e-05
5.33673e-05
5.37684e-05
5.41496e-05
5.4511e-05
5.48526e-05
5.51742e-05
5.54762e-05
5.57588e-05
5.60224e-05
5.62675e-05
5.64946e-05
5.67044e-05
5.68974e-05
5.70741e-05
5.72353e-05
5.73817e-05
5.75139e-05
5.76326e-05
5.77385e-05
5.78318e-05
5.79128e-05
5.79821e-05
5.80402e-05
5.80873e-05
5.81239e-05
5.81499e-05
5.81657e-05
5.81713e-05
5.81666e-05
5.81518e-05
5.81267e-05
5.80912e-05
5.8045e-05
5.79879e-05
5.79195e-05
5.78396e-05
5.77477e-05
5.76432e-05
5.75257e-05
5.73944e-05
5.72489e-05
5.70887e-05
5.69133e-05
5.67219e-05
5.65138e-05
5.62884e-05
5.60449e-05
5.57828e-05
5.55018e-05
5.52012e-05
5.4881e-05
5.45407e-05
5.41805e-05
5.38006e-05
5.34009e-05
5.29818e-05
5.25439e-05
5.20902e-05
5.16207e-05
5.11358e-05
5.06373e-05
5.01264e-05
4.96036e-05
4.90702e-05
4.85279e-05
4.79796e-05
4.74306e-05
4.68849e-05
4.63449e-05
4.5814e-05
4.52969e-05
4.4799e-05
4.43355e-05
4.39199e-05
4.35842e-05
4.33631e-05
4.32888e-05
4.51656e-05
4.52117e-05
4.54416e-05
4.58132e-05
4.63064e-05
4.68545e-05
4.74317e-05
4.80317e-05
4.86406e-05
4.92596e-05
4.98869e-05
5.05183e-05
5.11489e-05
5.17724e-05
5.23848e-05
5.29835e-05
5.35672e-05
5.41361e-05
5.46904e-05
5.52289e-05
5.57516e-05
5.62579e-05
5.67442e-05
5.72081e-05
5.76495e-05
5.80681e-05
5.84638e-05
5.88368e-05
5.91873e-05
5.95155e-05
5.98218e-05
6.01067e-05
6.03708e-05
6.06149e-05
6.08394e-05
6.10453e-05
6.12333e-05
6.1404e-05
6.15582e-05
6.16969e-05
6.18206e-05
6.19297e-05
6.20246e-05
6.21057e-05
6.21735e-05
6.22286e-05
6.22713e-05
6.23017e-05
6.23202e-05
6.23268e-05
6.23214e-05
6.23041e-05
6.22748e-05
6.22333e-05
6.21793e-05
6.21126e-05
6.20328e-05
6.19396e-05
6.18323e-05
6.17103e-05
6.15729e-05
6.14196e-05
6.12497e-05
6.10629e-05
6.08585e-05
6.06355e-05
6.03931e-05
6.01308e-05
5.98477e-05
5.95432e-05
5.92167e-05
5.88678e-05
5.84961e-05
5.81015e-05
5.76841e-05
5.72441e-05
5.67815e-05
5.62967e-05
5.57909e-05
5.52682e-05
5.47283e-05
5.41718e-05
5.36006e-05
5.30157e-05
5.24171e-05
5.18059e-05
5.11841e-05
5.05553e-05
4.99264e-05
4.93024e-05
4.86858e-05
4.80806e-05
4.74899e-05
4.69198e-05
4.63875e-05
4.59091e-05
4.55252e-05
4.52753e-05
4.51942e-05
4.71432e-05
4.71936e-05
4.74504e-05
4.78637e-05
4.84105e-05
4.90189e-05
4.96583e-05
5.03211e-05
5.09922e-05
5.16753e-05
5.23688e-05
5.30679e-05
5.37672e-05
5.44581e-05
5.5136e-05
5.5798e-05
5.64429e-05
5.70719e-05
5.76854e-05
5.82823e-05
5.88628e-05
5.94265e-05
5.99688e-05
6.04864e-05
6.0979e-05
6.14464e-05
6.18886e-05
6.23054e-05
6.26974e-05
6.30644e-05
6.34071e-05
6.3726e-05
6.40217e-05
6.4295e-05
6.45465e-05
6.47772e-05
6.49879e-05
6.51792e-05
6.53522e-05
6.55076e-05
6.56464e-05
6.57687e-05
6.58751e-05
6.59661e-05
6.60422e-05
6.6104e-05
6.61519e-05
6.61861e-05
6.62068e-05
6.62142e-05
6.62082e-05
6.61888e-05
6.61559e-05
6.61092e-05
6.60487e-05
6.59739e-05
6.58844e-05
6.57797e-05
6.56594e-05
6.55225e-05
6.53685e-05
6.51967e-05
6.50063e-05
6.4797e-05
6.45679e-05
6.43181e-05
6.40466e-05
6.37529e-05
6.3436e-05
6.30953e-05
6.27301e-05
6.234e-05
6.19246e-05
6.14838e-05
6.10176e-05
6.05265e-05
6.00104e-05
5.94698e-05
5.89064e-05
5.83256e-05
5.77269e-05
5.7111e-05
5.64793e-05
5.58331e-05
5.51714e-05
5.44947e-05
5.38055e-05
5.31081e-05
5.2411e-05
5.17204e-05
5.10389e-05
5.03709e-05
4.97176e-05
4.90847e-05
4.84919e-05
4.79577e-05
4.7532e-05
4.72583e-05
4.71731e-05
4.91972e-05
4.9253e-05
4.95374e-05
4.99893e-05
5.0583e-05
5.12446e-05
5.19385e-05
5.26558e-05
5.33804e-05
5.41187e-05
5.48696e-05
5.56278e-05
5.63871e-05
5.71367e-05
5.78712e-05
5.85872e-05
5.9284e-05
5.99639e-05
6.06277e-05
6.12745e-05
6.19046e-05
6.25182e-05
6.31091e-05
6.36735e-05
6.42108e-05
6.47208e-05
6.52032e-05
6.56582e-05
6.60862e-05
6.64872e-05
6.68616e-05
6.72101e-05
6.75333e-05
6.78321e-05
6.81072e-05
6.83596e-05
6.85901e-05
6.87996e-05
6.89889e-05
6.9159e-05
6.93109e-05
6.94448e-05
6.95614e-05
6.96612e-05
6.97445e-05
6.98122e-05
6.98647e-05
6.99021e-05
6.99249e-05
6.9933e-05
6.99264e-05
6.99051e-05
6.98691e-05
6.9818e-05
6.97517e-05
6.96697e-05
6.95717e-05
6.94572e-05
6.93254e-05
6.91755e-05
6.90068e-05
6.88187e-05
6.86104e-05
6.83814e-05
6.81308e-05
6.78575e-05
6.75606e-05
6.72394e-05
6.68931e-05
6.65208e-05
6.61219e-05
6.56958e-05
6.52423e-05
6.47611e-05
6.42525e-05
6.37168e-05
6.3154e-05
6.25648e-05
6.19513e-05
6.13205e-05
6.06717e-05
6.00053e-05
5.93225e-05
5.86243e-05
5.79087e-05
5.71756e-05
5.64277e-05
5.56702e-05
5.49134e-05
5.41645e-05
5.34265e-05
5.2704e-05
5.19953e-05
5.13062e-05
5.0658e-05
5.00721e-05
4.96085e-05
4.93145e-05
4.92274e-05
5.13306e-05
5.13908e-05
5.16977e-05
5.2185e-05
5.28237e-05
5.35359e-05
5.4281e-05
5.50481e-05
5.58207e-05
5.66084e-05
5.7411e-05
5.82225e-05
5.90361e-05
5.98383e-05
6.0623e-05
6.13863e-05
6.21283e-05
6.28524e-05
6.35601e-05
6.42506e-05
6.49247e-05
6.55828e-05
6.62175e-05
6.68238e-05
6.74013e-05
6.79495e-05
6.84682e-05
6.89576e-05
6.9418e-05
6.98493e-05
7.02523e-05
7.06273e-05
7.09753e-05
7.12969e-05
7.15932e-05
7.18649e-05
7.21132e-05
7.23388e-05
7.25427e-05
7.2726e-05
7.28894e-05
7.30337e-05
7.31593e-05
7.32667e-05
7.33566e-05
7.34295e-05
7.3486e-05
7.35264e-05
7.35509e-05
7.35596e-05
7.35525e-05
7.35296e-05
7.34908e-05
7.34357e-05
7.33643e-05
7.32759e-05
7.31703e-05
7.30469e-05
7.29049e-05
7.27435e-05
7.25618e-05
7.23592e-05
7.21349e-05
7.18883e-05
7.16185e-05
7.13242e-05
7.10046e-05
7.06589e-05
7.02862e-05
6.98855e-05
6.94563e-05
6.89981e-05
6.85103e-05
6.7993e-05
6.74463e-05
6.68706e-05
6.62659e-05
6.5633e-05
6.49747e-05
6.42996e-05
6.36068e-05
6.28962e-05
6.2169e-05
6.14256e-05
6.06626e-05
5.98793e-05
5.90786e-05
5.82665e-05
5.74554e-05
5.66539e-05
5.58649e-05
5.50935e-05
5.43343e-05
5.35928e-05
5.28923e-05
5.2257e-05
5.17581e-05
5.14462e-05
5.13589e-05
5.35452e-05
5.36119e-05
5.39429e-05
5.44646e-05
5.51445e-05
5.5904e-05
5.66965e-05
5.75093e-05
5.83257e-05
5.91588e-05
6.00091e-05
6.087e-05
6.17341e-05
6.25848e-05
6.34153e-05
6.42213e-05
6.50035e-05
6.57671e-05
6.65141e-05
6.7244e-05
6.7958e-05
6.86571e-05
6.93322e-05
6.99773e-05
7.05919e-05
7.11755e-05
7.17279e-05
7.22489e-05
7.27392e-05
7.31986e-05
7.36278e-05
7.40273e-05
7.43981e-05
7.47409e-05
7.50566e-05
7.53462e-05
7.56108e-05
7.58514e-05
7.60688e-05
7.62641e-05
7.64381e-05
7.65917e-05
7.67255e-05
7.684e-05
7.69358e-05
7.70136e-05
7.70739e-05
7.71169e-05
7.7143e-05
7.71523e-05
7.71448e-05
7.71203e-05
7.70789e-05
7.70202e-05
7.6944e-05
7.68498e-05
7.67372e-05
7.66056e-05
7.64542e-05
7.62821e-05
7.60885e-05
7.58728e-05
7.56339e-05
7.53712e-05
7.50835e-05
7.47699e-05
7.44294e-05
7.4061e-05
7.36639e-05
7.32371e-05
7.278e-05
7.2292e-05
7.17727e-05
7.12221e-05
7.06402e-05
7.00276e-05
6.93843e-05
6.8711e-05
6.80114e-05
6.72961e-05
6.65635e-05
6.58135e-05
6.50465e-05
6.42628e-05
6.34571e-05
6.26279e-05
6.17784e-05
6.09153e-05
6.00535e-05
5.92029e-05
5.83667e-05
5.755e-05
5.67433e-05
5.59517e-05
5.52002e-05
5.45162e-05
5.39833e-05
5.36553e-05
5.35692e-05
5.58423e-05
5.59141e-05
5.62638e-05
5.68183e-05
5.75412e-05
5.83488e-05
5.91888e-05
6.00461e-05
6.09041e-05
6.17803e-05
6.26759e-05
6.35842e-05
6.44967e-05
6.53934e-05
6.62671e-05
6.71125e-05
6.79317e-05
6.87315e-05
6.95145e-05
7.02808e-05
7.1032e-05
7.17698e-05
7.24831e-05
7.31648e-05
7.38146e-05
7.44315e-05
7.50156e-05
7.55666e-05
7.60851e-05
7.65711e-05
7.70251e-05
7.74478e-05
7.78402e-05
7.82029e-05
7.85371e-05
7.88437e-05
7.91238e-05
7.93784e-05
7.96086e-05
7.98153e-05
7.99997e-05
8.01623e-05
8.03039e-05
8.04251e-05
8.05266e-05
8.0609e-05
8.06728e-05
8.07184e-05
8.07461e-05
8.07559e-05
8.07479e-05
8.0722e-05
8.06781e-05
8.0616e-05
8.05353e-05
8.04355e-05
8.03163e-05
8.01769e-05
8.00166e-05
7.98344e-05
7.96295e-05
7.94011e-05
7.91482e-05
7.88701e-05
7.85656e-05
7.82337e-05
7.78733e-05
7.74835e-05
7.70633e-05
7.66118e-05
7.61282e-05
7.56121e-05
7.5063e-05
7.44807e-05
7.38656e-05
7.3218e-05
7.2538e-05
7.18265e-05
7.1088e-05
7.0335e-05
6.95657e-05
6.87794e-05
6.7976e-05
6.71553e-05
6.63101e-05
6.54379e-05
6.45422e-05
6.36303e-05
6.272e-05
6.18226e-05
6.09415e-05
6.00819e-05
5.92294e-05
5.83885e-05
5.75862e-05
5.68532e-05
5.62867e-05
5.59436e-05
5.58602e-05
5.82246e-05
5.83034e-05
5.86718e-05
5.92586e-05
6.00234e-05
6.08784e-05
6.17647e-05
6.26651e-05
6.35632e-05
6.44809e-05
6.54207e-05
6.63752e-05
6.73349e-05
6.82762e-05
6.91911e-05
7.0074e-05
7.09277e-05
7.17613e-05
7.25782e-05
7.33789e-05
7.41656e-05
7.49405e-05
7.56908e-05
7.64081e-05
7.70918e-05
7.77411e-05
7.83559e-05
7.89359e-05
7.94818e-05
7.99934e-05
8.04715e-05
8.09167e-05
8.13299e-05
8.1712e-05
8.20639e-05
8.2387e-05
8.26821e-05
8.29505e-05
8.3193e-05
8.34109e-05
8.3605e-05
8.37763e-05
8.39255e-05
8.40533e-05
8.41602e-05
8.4247e-05
8.43143e-05
8.43624e-05
8.43915e-05
8.44019e-05
8.43935e-05
8.43662e-05
8.43199e-05
8.42544e-05
8.41694e-05
8.40642e-05
8.39385e-05
8.37916e-05
8.36227e-05
8.34307e-05
8.32149e-05
8.29743e-05
8.27079e-05
8.24149e-05
8.20941e-05
8.17444e-05
8.13647e-05
8.09542e-05
8.05117e-05
8.00362e-05
7.95271e-05
7.89837e-05
7.84057e-05
7.77929e-05
7.71455e-05
7.64641e-05
7.57486e-05
7.50001e-05
7.42239e-05
7.3435e-05
7.26309e-05
7.18106e-05
7.09733e-05
7.01181e-05
6.92356e-05
6.83222e-05
6.73816e-05
6.64221e-05
6.54644e-05
6.45213e-05
6.35966e-05
6.26954e-05
6.17978e-05
6.09076e-05
6.00536e-05
5.92705e-05
5.86702e-05
5.83128e-05
5.82332e-05
6.06926e-05
6.0777e-05
6.11595e-05
6.17777e-05
6.25876e-05
6.34926e-05
6.4427e-05
6.53711e-05
6.63087e-05
6.72675e-05
6.8251e-05
6.92512e-05
7.02579e-05
7.12433e-05
7.21985e-05
7.31172e-05
7.40038e-05
7.48695e-05
7.57188e-05
7.65525e-05
7.73737e-05
7.81852e-05
7.8972e-05
7.97242e-05
8.04414e-05
8.11226e-05
8.17676e-05
8.23762e-05
8.2949e-05
8.3486e-05
8.39878e-05
8.44551e-05
8.48889e-05
8.529e-05
8.56595e-05
8.59987e-05
8.63086e-05
8.65904e-05
8.68451e-05
8.70739e-05
8.72778e-05
8.74577e-05
8.76143e-05
8.77485e-05
8.78608e-05
8.7952e-05
8.80227e-05
8.80732e-05
8.81038e-05
8.81147e-05
8.81058e-05
8.80772e-05
8.80286e-05
8.79598e-05
8.78704e-05
8.776e-05
8.7628e-05
8.74737e-05
8.72962e-05
8.70946e-05
8.6868e-05
8.66153e-05
8.63357e-05
8.6028e-05
8.56912e-05
8.5324e-05
8.49254e-05
8.44944e-05
8.40299e-05
8.35309e-05
8.29965e-05
8.24264e-05
8.18198e-05
8.11769e-05
8.04977e-05
7.97829e-05
7.90325e-05
7.82474e-05
7.74342e-05
7.66104e-05
7.57729e-05
7.49201e-05
7.40504e-05
7.31624e-05
7.2244e-05
7.12903e-05
7.03055e-05
6.92986e-05
6.82938e-05
6.73055e-05
6.63378e-05
6.53956e-05
6.44528e-05
6.35125e-05
6.26053e-05
6.17704e-05
6.11356e-05
6.07644e-05
6.06899e-05
6.32461e-05
6.3335e-05
6.37298e-05
6.43798e-05
6.52369e-05
6.61939e-05
6.71774e-05
6.81659e-05
6.91434e-05
7.01436e-05
7.11711e-05
7.22176e-05
7.32716e-05
7.43011e-05
7.52961e-05
7.625e-05
7.71682e-05
7.80651e-05
7.89456e-05
7.98115e-05
8.06666e-05
8.15145e-05
8.23377e-05
8.31249e-05
8.38756e-05
8.45886e-05
8.52638e-05
8.5901e-05
8.65007e-05
8.70629e-05
8.75884e-05
8.80778e-05
8.85321e-05
8.89522e-05
8.93393e-05
8.96946e-05
9.00193e-05
9.03145e-05
9.05814e-05
9.08211e-05
9.10347e-05
9.12231e-05
9.13872e-05
9.15278e-05
9.16455e-05
9.17411e-05
9.18151e-05
9.18681e-05
9.19001e-05
9.19115e-05
9.19022e-05
9.18722e-05
9.18213e-05
9.17492e-05
9.16556e-05
9.15399e-05
9.14015e-05
9.12398e-05
9.10539e-05
9.08427e-05
9.06052e-05
9.03406e-05
9.00477e-05
8.97254e-05
8.93725e-05
8.89879e-05
8.85704e-05
8.8119e-05
8.76325e-05
8.71099e-05
8.65504e-05
8.59534e-05
8.53184e-05
8.46454e-05
8.39345e-05
8.31864e-05
8.2401e-05
8.15795e-05
8.07294e-05
7.98711e-05
7.9001e-05
7.81168e-05
7.7216e-05
7.62963e-05
7.5343e-05
7.43497e-05
7.33207e-05
7.22662e-05
7.12139e-05
7.01802e-05
6.91694e-05
6.81863e-05
6.71979e-05
6.62061e-05
6.52437e-05
6.43545e-05
6.36842e-05
6.32996e-05
6.32316e-05
6.58853e-05
6.59761e-05
6.63814e-05
6.70643e-05
6.79727e-05
6.89853e-05
7.00206e-05
7.10549e-05
7.20727e-05
7.31146e-05
7.41866e-05
7.52801e-05
7.63821e-05
7.74561e-05
7.84909e-05
7.94794e-05
8.04284e-05
8.13554e-05
8.22665e-05
8.31641e-05
8.40529e-05
8.49374e-05
8.57973e-05
8.66198e-05
8.74041e-05
8.81492e-05
8.88549e-05
8.95209e-05
9.01478e-05
9.07355e-05
9.12849e-05
9.17965e-05
9.22715e-05
9.27108e-05
9.31156e-05
9.34872e-05
9.38268e-05
9.41355e-05
9.44147e-05
9.46654e-05
9.48887e-05
9.50858e-05
9.52574e-05
9.54044e-05
9.55276e-05
9.56276e-05
9.57051e-05
9.57604e-05
9.5794e-05
9.58059e-05
9.57961e-05
9.57648e-05
9.57115e-05
9.56361e-05
9.55381e-05
9.54171e-05
9.52724e-05
9.51032e-05
9.49087e-05
9.46878e-05
9.44395e-05
9.41627e-05
9.38564e-05
9.35194e-05
9.31504e-05
9.27482e-05
9.23116e-05
9.18395e-05
9.13309e-05
9.07846e-05
9.01996e-05
8.95757e-05
8.89119e-05
8.82086e-05
8.74657e-05
8.66839e-05
8.58633e-05
8.5005e-05
8.41179e-05
8.32253e-05
8.2323e-05
8.1408e-05
8.04769e-05
7.95265e-05
7.85388e-05
7.75059e-05
7.64325e-05
7.53296e-05
7.42291e-05
7.31495e-05
7.20954e-05
7.10711e-05
7.0036e-05
6.8991e-05
6.79707e-05
6.70247e-05
6.63174e-05
6.59197e-05
6.58594e-05
6.86112e-05
6.87004e-05
6.91123e-05
6.98283e-05
7.07929e-05
7.18651e-05
7.29552e-05
7.40374e-05
7.50969e-05
7.61817e-05
7.72996e-05
7.84414e-05
7.95926e-05
8.07118e-05
8.17867e-05
8.28095e-05
8.37887e-05
8.47453e-05
8.56865e-05
8.66156e-05
8.75382e-05
8.84596e-05
8.93568e-05
9.02151e-05
9.10337e-05
9.18114e-05
9.25481e-05
9.32433e-05
9.38977e-05
9.45114e-05
9.5085e-05
9.56193e-05
9.61153e-05
9.65741e-05
9.69968e-05
9.73849e-05
9.77396e-05
9.80622e-05
9.83538e-05
9.86157e-05
9.88489e-05
9.90547e-05
9.9234e-05
9.93875e-05
9.95162e-05
9.96207e-05
9.97016e-05
9.97595e-05
9.97945e-05
9.98069e-05
9.97968e-05
9.9764e-05
9.97083e-05
9.96296e-05
9.95272e-05
9.94008e-05
9.92496e-05
9.90729e-05
9.88697e-05
9.86389e-05
9.83796e-05
9.80906e-05
9.77707e-05
9.74186e-05
9.70332e-05
9.66131e-05
9.61571e-05
9.56642e-05
9.5133e-05
9.45626e-05
9.39518e-05
9.33004e-05
9.26076e-05
9.18734e-05
9.1098e-05
9.02821e-05
8.94256e-05
8.85299e-05
8.76053e-05
8.66783e-05
8.57442e-05
8.47989e-05
8.38382e-05
8.28577e-05
8.18361e-05
8.07635e-05
7.9645e-05
7.84927e-05
7.7343e-05
7.62166e-05
7.51185e-05
7.40524e-05
7.29694e-05
7.1869e-05
7.07879e-05
6.9782e-05
6.90362e-05
6.86257e-05
6.85745e-05
7.1421e-05
7.15044e-05
7.19252e-05
7.26776e-05
7.37028e-05
7.48389e-05
7.5987e-05
7.71191e-05
7.82211e-05
7.93497e-05
8.05143e-05
8.17056e-05
8.29073e-05
8.40727e-05
8.5188e-05
8.62449e-05
8.72538e-05
8.82394e-05
8.92103e-05
9.01707e-05
9.11272e-05
9.20862e-05
9.30216e-05
9.39164e-05
9.47699e-05
9.55809e-05
9.63491e-05
9.70742e-05
9.77568e-05
9.83969e-05
9.89952e-05
9.95526e-05
0.00010007
0.000100549
0.00010099
0.000101395
0.000101765
0.000102101
0.000102406
0.000102679
0.000102922
0.000103137
0.000103324
0.000103485
0.000103619
0.000103728
0.000103812
0.000103873
0.000103909
0.000103922
0.000103912
0.000103877
0.000103819
0.000103737
0.00010363
0.000103498
0.000103341
0.000103156
0.000102944
0.000102703
0.000102433
0.000102131
0.000101797
0.00010143
0.000101028
0.000100589
0.000100114
9.95994e-05
9.90453e-05
9.84502e-05
9.78131e-05
9.71337e-05
9.64111e-05
9.56455e-05
9.4837e-05
9.39861e-05
9.30931e-05
9.21593e-05
9.11964e-05
9.02348e-05
8.92689e-05
8.82938e-05
8.73039e-05
8.6294e-05
8.52386e-05
8.4126e-05
8.29615e-05
8.17586e-05
8.05584e-05
7.93842e-05
7.82413e-05
7.71326e-05
7.60002e-05
7.48419e-05
7.36969e-05
7.26276e-05
7.18416e-05
7.14184e-05
7.13778e-05
7.43158e-05
7.43867e-05
7.48131e-05
7.56034e-05
7.66962e-05
7.7902e-05
7.91124e-05
8.02974e-05
8.14439e-05
8.2618e-05
8.38313e-05
8.50738e-05
8.63278e-05
8.75406e-05
8.86969e-05
8.97879e-05
9.0826e-05
9.18402e-05
9.28404e-05
9.38321e-05
9.48229e-05
9.58203e-05
9.67947e-05
9.77269e-05
9.86163e-05
9.94613e-05
0.000100262
0.000101018
0.000101729
0.000102396
0.00010302
0.000103601
0.00010414
0.000104639
0.000105099
0.000105521
0.000105907
0.000106258
0.000106575
0.00010686
0.000107114
0.000107338
0.000107533
0.0001077
0.00010784
0.000107954
0.000108042
0.000108105
0.000108143
0.000108156
0.000108145
0.000108109
0.000108049
0.000107963
0.000107852
0.000107714
0.00010755
0.000107357
0.000107136
0.000106885
0.000106603
0.000106289
0.000105941
0.000105558
0.000105138
0.000104682
0.000104186
0.00010365
0.000103072
0.000102452
0.000101788
0.00010108
0.000100326
9.95287e-05
9.86861e-05
9.77996e-05
9.68692e-05
9.58963e-05
9.48945e-05
9.38979e-05
9.29002e-05
9.18955e-05
9.0877e-05
8.9838e-05
8.8749e-05
8.7596e-05
8.63846e-05
8.51296e-05
8.38775e-05
8.26542e-05
8.14655e-05
8.03133e-05
7.91298e-05
7.79109e-05
7.66983e-05
7.55621e-05
7.47339e-05
7.42982e-05
7.42698e-05
7.72941e-05
7.73479e-05
7.77847e-05
7.86173e-05
7.9782e-05
8.10618e-05
8.23379e-05
8.3578e-05
8.477e-05
8.59907e-05
8.72539e-05
8.85492e-05
8.9857e-05
9.11183e-05
9.23162e-05
9.34412e-05
9.45081e-05
9.55503e-05
9.65797e-05
9.76026e-05
9.86281e-05
9.96646e-05
0.000100679
0.00010165
0.000102576
0.000103456
0.000104289
0.000105076
0.000105817
0.000106512
0.000107162
0.000107767
0.000108329
0.000108849
0.000109328
0.000109768
0.00011017
0.000110535
0.000110866
0.000111163
0.000111427
0.00011166
0.000111864
0.000112038
0.000112184
0.000112302
0.000112394
0.00011246
0.000112499
0.000112513
0.000112502
0.000112465
0.000112401
0.000112312
0.000112196
0.000112053
0.000111881
0.000111681
0.00011145
0.000111189
0.000110895
0.000110567
0.000110205
0.000109806
0.000109369
0.000108893
0.000108376
0.000107818
0.000107216
0.00010657
0.000105878
0.000105141
0.000104357
0.000103526
0.000102648
0.000101725
0.000100756
9.97435e-05
9.87018e-05
9.76698e-05
9.66404e-05
9.56063e-05
9.45596e-05
9.34921e-05
9.23697e-05
9.11758e-05
8.99164e-05
8.86077e-05
8.73021e-05
8.60284e-05
8.47928e-05
8.35962e-05
8.23596e-05
8.10773e-05
7.97933e-05
7.85861e-05
7.77136e-05
7.72656e-05
7.7251e-05
8.03573e-05
8.03874e-05
8.08327e-05
8.17101e-05
8.29539e-05
8.43138e-05
8.56602e-05
8.69586e-05
8.81981e-05
8.94672e-05
9.07821e-05
9.21322e-05
9.34957e-05
9.48069e-05
9.60469e-05
9.7206e-05
9.83011e-05
9.93709e-05
0.000100429
0.000101483
0.000102544
0.00010362
0.000104676
0.000105686
0.00010665
0.000107565
0.000108433
0.000109252
0.000110024
0.000110747
0.000111423
0.000112053
0.000112639
0.00011318
0.000113679
0.000114137
0.000114555
0.000114936
0.00011528
0.000115589
0.000115864
0.000116107
0.000116319
0.0001165
0.000116652
0.000116775
0.000116871
0.000116939
0.000116981
0.000116995
0.000116983
0.000116945
0.000116879
0.000116786
0.000116665
0.000116516
0.000116337
0.000116128
0.000115889
0.000115616
0.00011531
0.000114969
0.000114591
0.000114176
0.000113721
0.000113226
0.000112688
0.000112106
0.00011148
0.000110807
0.000110087
0.00010932
0.000108503
0.000107638
0.000106725
0.000105764
0.000104756
0.000103702
0.00010262
0.000101552
0.000100491
9.94278e-05
9.83534e-05
9.72579e-05
9.61022e-05
9.48669e-05
9.35584e-05
9.21943e-05
9.08335e-05
8.95079e-05
8.82243e-05
8.6982e-05
8.56904e-05
8.43415e-05
8.29819e-05
8.16996e-05
8.07806e-05
8.03206e-05
8.03218e-05
8.3506e-05
8.35088e-05
8.39667e-05
8.4893e-05
8.62201e-05
8.76644e-05
8.90846e-05
9.04435e-05
9.17316e-05
9.30502e-05
9.44181e-05
9.58248e-05
9.72458e-05
9.86081e-05
9.98908e-05
0.000101084
0.000102207
0.000103304
0.00010439
0.000105475
0.000106571
0.000107689
0.000108787
0.000109837
0.000110839
0.000111792
0.000112695
0.000113547
0.00011435
0.000115102
0.000115806
0.000116462
0.00011707
0.000117634
0.000118153
0.000118629
0.000119065
0.000119461
0.000119819
0.000120141
0.000120427
0.00012068
0.0001209
0.000121089
0.000121247
0.000121376
0.000121475
0.000121546
0.000121589
0.000121604
0.000121592
0.000121552
0.000121483
0.000121386
0.000121261
0.000121105
0.000120919
0.000120702
0.000120453
0.000120169
0.000119851
0.000119496
0.000119103
0.00011867
0.000118197
0.000117681
0.000117122
0.000116517
0.000115865
0.000115165
0.000114416
0.000113617
0.000112768
0.000111868
0.000110918
0.000109919
0.00010887
0.000107774
0.00010665
0.000105546
0.000104453
0.000103361
0.000102259
0.000101136
9.99476e-05
9.86705e-05
9.73117e-05
9.58904e-05
9.44727e-05
9.30937e-05
9.17608e-05
9.04718e-05
8.91232e-05
8.77042e-05
8.62648e-05
8.49027e-05
8.39348e-05
8.34631e-05
8.3482e-05
8.67428e-05
8.67151e-05
8.7185e-05
8.81626e-05
8.95783e-05
9.11122e-05
9.26103e-05
9.40324e-05
9.53703e-05
9.67396e-05
9.81623e-05
9.96272e-05
0.000101108
0.000102522
0.000103848
0.000105075
0.000106225
0.000107348
0.000108463
0.000109579
0.000110711
0.00011187
0.000113011
0.000114103
0.000115146
0.000116136
0.000117075
0.000117961
0.000118795
0.000119578
0.00012031
0.000120992
0.000121625
0.000122211
0.000122751
0.000123246
0.000123699
0.000124111
0.000124484
0.000124818
0.000125116
0.000125379
0.000125608
0.000125805
0.000125969
0.000126103
0.000126206
0.00012628
0.000126325
0.000126341
0.000126328
0.000126286
0.000126214
0.000126114
0.000125983
0.000125821
0.000125628
0.000125402
0.000125142
0.000124848
0.000124516
0.000124147
0.000123739
0.000123289
0.000122797
0.00012226
0.000121678
0.000121049
0.000120371
0.000119643
0.000118864
0.000118034
0.00011715
0.000116215
0.000115227
0.000114188
0.000113098
0.000111959
0.000110791
0.000109651
0.000108526
0.000107406
0.000106278
0.000105128
0.000103907
0.000102587
0.000101177
9.96966e-05
9.82201e-05
9.67862e-05
9.54027e-05
9.40658e-05
9.26578e-05
9.11652e-05
8.96413e-05
8.81948e-05
8.71756e-05
8.66927e-05
8.67313e-05
9.007e-05
9.00115e-05
9.04929e-05
9.15234e-05
9.30316e-05
9.46593e-05
9.62387e-05
9.77261e-05
9.91149e-05
0.000100536
0.000102015
0.00010354
0.000105082
0.00010655
0.00010792
0.00010918
0.000110356
0.000111505
0.000112647
0.000113794
0.000114962
0.000116165
0.00011735
0.000118485
0.000119568
0.000120597
0.000121573
0.000122494
0.000123361
0.000124175
0.000124935
0.000125644
0.000126302
0.000126911
0.000127473
0.000127988
0.000128459
0.000128887
0.000129274
0.000129622
0.000129932
0.000130205
0.000130443
0.000130647
0.000130818
0.000130957
0.000131064
0.000131141
0.000131188
0.000131204
0.000131191
0.000131147
0.000131073
0.000130969
0.000130833
0.000130665
0.000130464
0.000130229
0.000129959
0.000129652
0.000129308
0.000128924
0.000128499
0.000128032
0.000127521
0.000126963
0.000126358
0.000125704
0.000124999
0.000124242
0.000123433
0.000122569
0.000121651
0.000120679
0.000119653
0.000118573
0.00011744
0.000116256
0.000115045
0.000113867
0.000112711
0.000111563
0.000110409
0.000109234
0.00010798
0.000106617
0.000105154
0.000103613
0.000102076
0.000100586
9.91503e-05
9.77642e-05
9.62945e-05
9.47247e-05
9.31113e-05
9.15753e-05
9.05023e-05
9.00084e-05
9.00691e-05
9.34875e-05
9.33985e-05
9.38911e-05
9.49763e-05
9.65807e-05
9.83063e-05
9.99704e-05
0.000101525
0.000102966
0.00010444
0.000105976
0.000107563
0.000109168
0.000110691
0.000112106
0.000113399
0.0001146
0.000115774
0.000116942
0.00011812
0.000119325
0.000120571
0.000121802
0.000122981
0.000124106
0.000125175
0.000126188
0.000127145
0.000128046
0.000128891
0.000129682
0.000130418
0.000131102
0.000131734
0.000132317
0.000132853
0.000133342
0.000133787
0.000134189
0.000134551
0.000134872
0.000135156
0.000135404
0.000135616
0.000135793
0.000135937
0.000136049
0.000136129
0.000136177
0.000136194
0.00013618
0.000136135
0.000136058
0.000135949
0.000135808
0.000135634
0.000135425
0.000135181
0.0001349
0.000134582
0.000134224
0.000133826
0.000133384
0.000132899
0.000132367
0.000131788
0.000131159
0.00013048
0.000129748
0.000128961
0.00012812
0.000127223
0.00012627
0.00012526
0.000124194
0.000123072
0.000121895
0.000120666
0.00011941
0.000118194
0.000117007
0.000115832
0.000114653
0.000113452
0.000112166
0.000110761
0.000109244
0.00010764
0.00010604
0.000104491
0.000103003
0.000101567
0.000100033
9.83817e-05
9.66738e-05
9.5043e-05
9.39134e-05
9.34091e-05
9.34944e-05
9.69956e-05
9.68764e-05
9.73767e-05
9.85171e-05
0.000100222
0.000102051
0.000103803
0.000105428
0.000106921
0.00010845
0.000110045
0.000111696
0.000113366
0.000114946
0.000116404
0.000117731
0.000118956
0.000120153
0.000121348
0.000122556
0.000123797
0.000125088
0.000126366
0.00012759
0.000128758
0.000129868
0.00013092
0.000131914
0.000132849
0.000133727
0.000134547
0.000135312
0.000136022
0.000136679
0.000137284
0.00013784
0.000138348
0.00013881
0.000139228
0.000139603
0.000139937
0.000140232
0.000140489
0.000140709
0.000140893
0.000141043
0.000141159
0.000141242
0.000141292
0.00014131
0.000141295
0.000141248
0.000141168
0.000141055
0.000140909
0.000140728
0.000140511
0.000140258
0.000139966
0.000139636
0.000139264
0.00013885
0.000138392
0.000137888
0.000137336
0.000136735
0.000136082
0.000135376
0.000134616
0.0001338
0.000132926