/*--------------------------------*- C++ -*----------------------------------*\
| =========                 |                                                 |
| \\      /  F ield         | OpenFOAM: The Open Source CFD Toolbox           |
|  \\    /   O peration     | Version:  2212                                  |
|   \\  /    A nd           | Website:  www.openfoam.com                      |
|    \\/     M anipulation  |                                                 |
\*---------------------------------------------------------------------------*/
FoamFile
{
    version     2.0;
    format      ascii;
    arch        "LSB;label=32;scalar=64";
    class       volVectorField;
    location    "0";
    object      wallShearStress;
}
// * * * * * * * * * * * * * * * * * * * * * * * * * * * * * * * * * * * * * //

dimensions      [0 2 -2 0 0 0 0];

internalField   uniform (0 0 0);

boundaryField
{
    bottomWall
    {
        type            calculated;
        value           nonuniform List<vector> 
99
(
(-2.49124e-06 1.01234e-08 0)
(-2.84131e-06 9.95281e-08 1.35061e-22)
(-1.12841e-06 1.65786e-07 -1.00158e-21)
(1.1001e-06 -4.25404e-07 -2.21021e-25)
(1.36509e-06 -7.94307e-07 -2.83999e-21)
(7.13068e-07 -5.2882e-07 1.30896e-21)
(5.22765e-07 -4.31567e-07 -1.2263e-21)
(3.28291e-07 -2.80565e-07 7.34684e-40)
(2.68134e-07 -2.23844e-07 1.21934e-21)
(2.08345e-07 -1.69765e-07 -1.23412e-21)
(2.06675e-07 -1.65083e-07 -3.02699e-25)
(2.17541e-07 -1.71553e-07 3.05253e-25)
(2.49113e-07 -1.92812e-07 -1.02269e-37)
(2.74375e-07 -2.02464e-07 1.04554e-38)
(2.92125e-07 -1.97955e-07 8.55075e-38)
(2.89944e-07 -1.72209e-07 -3.67342e-40)
(2.77507e-07 -1.37091e-07 -1.40985e-21)
(2.57882e-07 -1.00912e-07 -7.30028e-22)
(2.32276e-07 -6.68693e-08 1.50371e-21)
(2.11083e-07 -3.86329e-08 -3.84269e-22)
(1.97702e-07 -1.57252e-08 -1.94113e-22)
(3.15608e-07 -2.05258e-09 6.0827e-24)
(5.03288e-07 -1.98502e-09 -1.84589e-27)
(6.41699e-07 -1.76459e-09 3.44862e-28)
(7.67889e-07 -1.59341e-09 2.56962e-29)
(8.69705e-07 -1.4092e-09 8.40833e-30)
(9.5786e-07 -1.23857e-09 -2.24675e-29)
(1.03106e-06 -1.09496e-09 -1.40178e-31)
(1.09411e-06 -9.61161e-10 1.60642e-29)
(1.14745e-06 -8.49179e-10 -2.17421e-29)
(1.19318e-06 -7.44963e-10 2.04286e-29)
(1.23183e-06 -6.51914e-10 -8.19626e-31)
(1.2643e-06 -5.65085e-10 3.39731e-29)
(1.291e-06 -4.82558e-10 -4.07856e-29)
(1.31236e-06 -4.04121e-10 3.70141e-29)
(1.32854e-06 -3.31764e-10 -3.89613e-29)
(1.33983e-06 -2.59578e-10 -1.44376e-29)
(1.34642e-06 -1.93809e-10 1.46773e-29)
(1.34852e-06 -1.28008e-10 -1.0923e-30)
(1.34634e-06 -6.74407e-11 -1.74258e-29)
(1.34009e-06 -7.81819e-12 -5.67293e-31)
(1.33002e-06 4.67817e-11 -7.9152e-30)
(1.31635e-06 9.94674e-11 6.99984e-30)
(1.29935e-06 1.46204e-10 -9.36808e-30)
(1.27925e-06 1.92497e-10 -3.64517e-30)
(1.25633e-06 2.3273e-10 -1.47118e-31)
(1.23084e-06 2.71621e-10 -1.67547e-30)
(1.20304e-06 3.06487e-10 -8.00853e-31)
(1.17319e-06 3.38567e-10 -1.43692e-30)
(1.14153e-06 3.67299e-10 -3.2751e-31)
(1.10831e-06 3.93608e-10 -9.10902e-31)
(1.07377e-06 4.15439e-10 -3.43191e-30)
(1.03811e-06 4.37075e-10 2.80008e-31)
(1.00158e-06 4.53663e-10 2.76153e-31)
(9.64354e-07 4.70396e-10 3.0308e-31)
(9.26644e-07 4.83696e-10 -3.30843e-30)
(8.88624e-07 4.96992e-10 5.25991e-31)
(8.50464e-07 5.06921e-10 5.16461e-31)
(8.12324e-07 5.17383e-10 -5.09921e-30)
(7.74349e-07 5.24534e-10 9.93446e-31)
(7.36674e-07 5.33524e-10 9.73307e-31)
(6.99419e-07 5.40241e-10 2.04926e-30)
(6.62709e-07 5.48127e-10 9.32712e-31)
(6.26669e-07 5.57514e-10 9.12492e-31)
(5.91369e-07 5.65008e-10 8.92318e-31)
(5.57014e-07 5.74234e-10 -3.82523e-30)
(5.23575e-07 5.86326e-10 1.32471e-29)
(4.91308e-07 5.96466e-10 9.40708e-31)
(4.60206e-07 6.15946e-10 8.14677e-31)
(4.30434e-07 6.31609e-10 1.50005e-30)
(4.02296e-07 6.58837e-10 1.3518e-31)
(3.76017e-07 6.92131e-10 3.78941e-31)
(3.51859e-07 7.38613e-10 -1.41277e-31)
(3.30593e-07 7.89095e-10 -1.4921e-30)
(3.12931e-07 8.80099e-10 -6.51876e-31)
(3.00081e-07 1.01395e-09 -9.76846e-30)
(2.93461e-07 1.4255e-09 2.63931e-28)
(2.89499e-07 4.38128e-09 -1.07126e-24)
(2.88778e-07 2.74801e-08 -1.99265e-23)
(2.87207e-07 5.70727e-08 -9.02807e-23)
(2.7697e-07 8.39666e-08 -1.00057e-22)
(2.50139e-07 1.0203e-07 -1.09408e-22)
(2.01575e-07 1.03601e-07 -4.74765e-26)
(1.17428e-07 7.3451e-08 -2.52538e-22)
(-2.15879e-08 -1.05234e-08 2.67959e-22)
(-2.27261e-07 -1.60775e-07 -6.58728e-26)
(-5.04911e-07 -3.77653e-07 -5.68887e-22)
(-8.28157e-07 -6.31571e-07 0)
(-1.16802e-06 -9.06607e-07 -6.82725e-39)
(-1.57548e-06 -1.254e-06 1.12104e-44)
(-2.11081e-06 -1.73324e-06 3.80252e-26)
(-2.99035e-06 -2.50785e-06 1.93008e-23)
(-4.49134e-06 -3.61433e-06 2.12958e-22)
(-6.62237e-06 -4.71279e-06 2.33502e-25)
(-9.50697e-06 -5.29987e-06 -1.34573e-21)
(-1.07487e-05 -3.78903e-06 1.20054e-21)
(-7.67648e-06 -1.25016e-06 1.45471e-21)
(-3.79302e-06 -1.12794e-07 -1.93056e-26)
(-1.98278e-06 -7.74526e-09 1.9405e-26)
)
;
    }
    defaultFaces
    {
        type            empty;
    }
    inlet
    {
        type            cyclic;
    }
    outlet
    {
        type            cyclic;
    }
    topWall
    {
        type            calculated;
        value           nonuniform List<vector> 
99
(
(-3.99801e-06 -4.52791e-10 0)
(-3.9825e-06 9.54466e-11 0)
(-3.98448e-06 -5.02389e-10 5.58846e-29)
(-3.9637e-06 -5.9662e-10 -5.59154e-29)
(-3.94807e-06 -8.54911e-10 1.03975e-28)
(-3.91975e-06 -1.10981e-09 -1.73649e-27)
(-3.8869e-06 -1.27197e-09 0)
(-3.84902e-06 -1.46924e-09 2.30171e-29)
(-3.80533e-06 -1.62152e-09 -9.92568e-31)
(-3.75743e-06 -1.74867e-09 2.0135e-29)
(-3.70574e-06 -1.84226e-09 -1.86786e-30)
(-3.65102e-06 -1.91666e-09 -2.5686e-27)
(-3.59364e-06 -1.96137e-09 0)
(-3.53473e-06 -1.97848e-09 7.08492e-29)
(-3.47456e-06 -1.97787e-09 2.14918e-27)
(-3.41396e-06 -1.94079e-09 1.06568e-27)
(-3.35351e-06 -1.89885e-09 -6.28851e-29)
(-3.29342e-06 -1.82516e-09 6.29453e-29)
(-3.23451e-06 -1.74837e-09 9.55447e-28)
(-3.17683e-06 -1.65596e-09 9.26772e-28)
(-3.12113e-06 -1.55969e-09 0)
(-3.06735e-06 -1.46234e-09 9.35918e-28)
(-3.0158e-06 -1.36636e-09 -5.45846e-29)
(-2.96659e-06 -1.2718e-09 5.29262e-29)
(-2.91998e-06 -1.17926e-09 -5.29628e-29)
(-2.87594e-06 -1.08661e-09 -1.67393e-27)
(-2.83459e-06 -1.00122e-09 0)
(-2.79597e-06 -9.14309e-10 -4.18176e-28)
(-2.76007e-06 -8.34244e-10 0)
(-2.72694e-06 -7.55981e-10 0)
(-2.69655e-06 -6.8202e-10 0)
(-2.66882e-06 -6.1096e-10 0)
(-2.64375e-06 -5.43393e-10 0)
(-2.62131e-06 -4.78204e-10 -2.87083e-29)
(-2.60146e-06 -4.16345e-10 2.87178e-29)
(-2.58414e-06 -3.55324e-10 -9.83091e-28)
(-2.56923e-06 -2.99301e-10 1.00874e-27)
(-2.55677e-06 -2.44177e-10 1.0062e-27)
(-2.54671e-06 -1.91753e-10 0)
(-2.53898e-06 -1.37655e-10 0)
(-2.53344e-06 -8.72506e-11 -8.72572e-30)
(-2.53016e-06 -4.45913e-11 8.72696e-30)
(-2.52899e-06 1.44757e-12 9.28298e-30)
(-2.5299e-06 4.04406e-11 -9.28369e-30)
(-2.53285e-06 8.22995e-11 -4.93825e-30)
(-2.53768e-06 1.20212e-10 4.93838e-30)
(-2.54436e-06 1.56777e-10 2.62478e-30)
(-2.55277e-06 1.9056e-10 6.79475e-28)
(-2.56287e-06 2.26483e-10 0)
(-2.57475e-06 2.61502e-10 -7.16993e-31)
(-2.58833e-06 2.94398e-10 7.1694e-31)
(-2.60356e-06 3.25287e-10 1.51684e-30)
(-2.62041e-06 3.55629e-10 -1.51667e-30)
(-2.63877e-06 3.8433e-10 -3.20007e-30)
(-2.65859e-06 4.11949e-10 -8.33158e-28)
(-2.67982e-06 4.36938e-10 1.32954e-29)
(-2.7024e-06 4.62065e-10 -6.72937e-30)
(-2.72625e-06 4.83438e-10 0)
(-2.75115e-06 5.02258e-10 0)
(-2.77719e-06 5.19086e-10 0)
(-2.80439e-06 5.3905e-10 3.81285e-27)
(-2.83245e-06 5.48304e-10 7.74982e-27)
(-2.86143e-06 5.65477e-10 3.06824e-29)
(-2.89121e-06 5.81732e-10 3.18382e-29)
(-2.92166e-06 5.90917e-10 3.29409e-29)
(-2.95276e-06 6.00422e-10 -2.21987e-27)
(-2.98445e-06 6.08918e-10 2.18802e-27)
(-3.01665e-06 6.17975e-10 0)
(-3.04922e-06 6.23546e-10 -6.86987e-29)
(-3.08222e-06 6.29808e-10 6.86662e-29)
(-3.1155e-06 6.34542e-10 0)
(-3.14902e-06 6.41202e-10 0)
(-3.1828e-06 6.47184e-10 0)
(-3.21675e-06 6.54477e-10 0)
(-3.25087e-06 6.63687e-10 -2.90952e-28)
(-3.28517e-06 6.74892e-10 1.47092e-28)
(-3.3196e-06 6.86388e-10 2.96038e-28)
(-3.3542e-06 7.04785e-10 -2.96633e-28)
(-3.38893e-06 7.18925e-10 2.97347e-28)
(-3.42391e-06 7.50923e-10 1.49257e-28)
(-3.45913e-06 7.6904e-10 -2.99974e-28)
(-3.49441e-06 8.06944e-10 0)
(-3.53009e-06 8.38265e-10 0)
(-3.56582e-06 8.77531e-10 1.50195e-28)
(-3.60178e-06 9.15309e-10 -1.50063e-28)
(-3.63788e-06 9.54406e-10 0)
(-3.67395e-06 9.851e-10 0)
(-3.70987e-06 1.01918e-09 0)
(-3.74548e-06 1.03882e-09 0)
(-3.78067e-06 1.06575e-09 4.70507e-27)
(-3.81487e-06 1.05613e-09 -3.62745e-29)
(-3.84732e-06 1.04133e-09 0)
(-3.8786e-06 1.02116e-09 -3.49483e-29)
(-3.90664e-06 9.24963e-10 -1.73617e-28)
(-3.93212e-06 9.00071e-10 1.01315e-28)
(-3.95472e-06 7.49296e-10 -3.37229e-29)
(-3.96954e-06 5.32033e-10 -1.06204e-27)
(-3.97529e-06 3.27427e-10 1.62078e-29)
(-3.99601e-06 7.83211e-10 1.99545e-27)
)
;
    }
}


// ************************************************************************* //
