/*--------------------------------*- C++ -*----------------------------------*\
| =========                 |                                                 |
| \\      /  F ield         | OpenFOAM: The Open Source CFD Toolbox           |
|  \\    /   O peration     | Version:  2212                                  |
|   \\  /    A nd           | Website:  www.openfoam.com                      |
|    \\/     M anipulation  |                                                 |
\*---------------------------------------------------------------------------*/
FoamFile
{
    version     2.0;
    format      ascii;
    arch        "LSB;label=32;scalar=64";
    class       volScalarField;
    location    "0";
    object      Cx;
}
// * * * * * * * * * * * * * * * * * * * * * * * * * * * * * * * * * * * * * //

dimensions      [0 1 0 0 0 0 0];

internalField   nonuniform List<scalar> 
3584
(
414.63042
272.66895
414.47595
184.25476
271.44502
414.44269
134.9997
178.59141
271.31731
414.43366
111.51454
121.2312
177.79848
271.28562
414.43124
100.74011
90.466055
117.11539
177.71516
271.27659
414.4307
94.299198
77.20563
80.033487
116.57928
177.69291
271.27405
414.4307
88.828703
71.739101
61.104226
76.933597
116.52238
177.68639
271.27343
414.43084
83.454441
68.189021
53.996563
53.053799
76.557261
116.50637
177.68453
271.27338
414.43102
78.002462
64.84966
51.303764
41.587995
50.665287
76.517129
116.50161
177.68409
271.27349
414.43119
72.437083
61.468615
49.186943
38.028066
35.34626
50.392186
76.505446
116.50025
177.68408
271.27364
414.43136
66.747708
58.012658
47.04688
36.631877
28.510289
33.489815
50.363268
76.501945
116.49995
177.68419
271.2738
414.43153
60.927023
54.473874
44.854928
35.266995
26.869318
23.690951
33.285957
50.354672
76.500968
116.49998
177.68434
271.27397
414.43168
54.967525
50.847397
42.607472
33.854404
26.03311
19.682567
22.257079
33.264839
50.352103
76.500778
116.5001
177.6845
271.27413
414.43184
48.861098
47.128368
40.301485
32.403417
25.118027
18.973137
15.993421
22.102027
33.258494
50.35141
76.500831
116.50025
177.68466
271.27428
414.432
42.598918
43.311567
37.933858
30.913196
24.170727
18.408634
13.681788
14.907663
22.086486
33.256618
50.351303
76.500957
116.5004
177.68482
271.27444
414.43215
36.171381
39.391344
35.501268
29.381812
23.196659
17.787939
13.363603
10.891365
14.789938
22.081806
33.256138
50.35138
76.501106
116.50056
177.68497
271.27459
414.43231
29.568025
35.361592
33.00014
27.807168
22.194916
17.147055
12.970174
9.5682858
10.094472
14.778466
22.080447
33.256096
50.351512
76.501259
116.50071
177.68513
271.27475
414.43246
22.777441
31.215694
30.426636
26.187019
21.164185
16.48732
12.548032
9.3973288
7.4973577
10.009233
14.77502
22.080126
33.256191
50.35166
76.501414
116.50087
177.68528
271.2749
414.43262
15.787188
26.946489
27.776628
24.518973
20.103059
15.807964
12.112432
9.1243786
6.7207018
6.9386039
10.000743
14.774045
22.080133
33.256326
50.351811
76.501567
116.50102
177.68543
271.27506
414.43277
8.5836902
22.546225
25.045683
22.800477
19.010052
15.108102
11.663347
8.836881
6.6079909
5.2379161
6.8835551
9.9982107
14.773844
22.08024
33.256474
50.351965
76.501721
116.50118
177.68559
271.27521
414.43292
1.1521405
18.006512
22.229041
21.028813
17.88359
14.386801
11.200212
8.539844
6.4201431
4.7412675
4.8709336
6.8772504
9.9975204
14.773885
22.080378
33.256625
50.352118
76.501874
116.50133
177.68574
271.27536
414.43308
-6.5236012
13.318282
19.321598
19.201087
16.722008
13.643082
10.72242
8.2329811
6.223713
4.6563482
3.7485927
4.8399467
6.8753934
9.9974064
14.774001
22.080525
33.256777
50.35227
76.502027
116.50148
177.68589
271.27552
414.43323
-14.461107
8.471745
16.317887
17.314226
15.523555
12.875915
10.229339
7.9158711
6.0202354
4.5250513
3.4051004
3.5225583
4.8352491
6.874913
9.9974727
14.774141
22.080676
33.256929
50.352423
76.50218
116.50164
177.68605
271.27567
414.43338
-22.67947
3.4563541
13.212071
15.36497
14.28638
12.084218
9.7203037
7.5880716
5.8094028
4.3886144
3.321383
2.7852281
3.5038185
4.8338903
6.8748627
9.9975958
14.774289
22.080827
33.257082
50.352576
76.502333
116.50179
177.6862
271.27582
414.43353
-1.7392195
-31.199373
9.9979246
13.349872
13.008542
11.266862
9.1946173
7.2491185
5.5908765
4.2473566
3.2192948
2.5566885
2.6444226
3.5003029
4.8335635
6.8749472
9.9977367
14.774438
22.080979
33.257234
50.352728
76.502485
116.50194
177.68635
271.27597
414.43369
6.6688409
-7.1271026
-40.043142
11.265297
11.688002
10.422662
8.651552
6.8985275
5.3643141
4.1008742
3.1162293
2.4732722
2.1684634
2.630267
3.4993099
4.833559
6.8750741
9.997883
14.774589
22.08113
33.257386
50.352881
76.502638
116.50209
177.6865
271.27613
414.43384
9.1074284
3.2178349
-12.720203
-49.23473
10.322632
9.5503843
8.0903478
6.5357961
5.1293696
3.9487949
3.0121545
2.3824349
2.0236206
2.0708516
2.6276185
3.4990947
4.8336554
6.8752143
9.998031
14.774739
22.081282
33.257538
50.353033
76.502791
116.50225
177.68666
271.27628
414.43399
8.9102147
6.8722777
-0.36243324
-18.532181
-58.79966
8.6487447
7.5102143
6.1604045
4.8856954
3.7907879
2.9063834
2.2902622
1.9526178
1.7668203
2.0591722
2.6268924
3.4991218
4.8337835
6.8753589
9.9981798
14.77489
22.081433
33.25769
50.353185
76.502943
116.5024
177.68681
271.27643
414.43414
7.7164146
7.4484576
4.5557055
-4.0796161
-24.577351
-68.764849
6.9103342
5.7718212
4.6329452
3.6265625
2.7980491
2.19786
1.8756536
1.6741579
1.6958081
2.057157
2.6267565
3.4992247
4.8339218
6.8755048
9.9983288
14.77504
22.081585
33.257842
50.353338
76.503095
116.50255
177.68696
271.27658
414.43429
6.2898693
6.7520302
5.9350041
2.1534542
-7.94161
-30.870547
-79.158294
5.3695087
4.3707799
3.4558656
2.6863659
2.1063822
1.7948631
1.6184583
1.5026061
1.6858439
2.0566236
2.6268038
3.4993517
4.8340637
6.8756516
9.998478
14.775191
22.081736
33.257994
50.35349
76.503248
116.5027
177.68711
271.27674
414.43444
4.9529337
5.6479712
5.754204
4.3674601
-0.33880293
-11.956449
-37.426884
-90.008591
4.0988748
3.2784829
2.5707582
2.0168737
1.7113897
1.5580247
1.4406584
1.4502809
1.6842882
2.056542
2.6269085
3.4994866
4.834207
6.8757988
9.9986275
14.775342
22.081888
33.258146
50.353642
76.5034
116.50286
177.68727
271.27689
414.4346
3.8169313
4.5215799
4.9837967
4.7215471
2.7434298
-2.9253872
-16.132144
-44.261412
-101.34412
3.0942418
2.45086
1.9296542
1.6268256
1.4934297
1.3969692
1.327843
1.441829
1.6838913
2.0566003
2.6270318
3.4996247
4.8343512
6.8759465
9.9987773
14.775493
22.08204
33.258298
50.353794
76.503552
116.50301
177.68742
271.27704
414.4346
2.9030163
3.5246898
4.0749662
4.2965309
3.6527008
1.0605696
-5.6105088
-20.476459
-51.38862
-113.19198
2.3264642
1.8438482
1.5428828
1.4250929
1.3494056
1.2844539
1.2893547
1.4406037
1.683845
2.0567027
2.6271619
3.4997645
4.8344962
6.8760946
9.9989273
14.775644
22.082191
33.25845
50.353947
76.503705
116.50316
177.68757
271.27704
414.43444
2.1974725
2.704734
3.2219473
3.6126707
3.5854192
2.5463824
-0.68333459
-8.3981132
-24.996587
-58.821728
-125.57642
1.7579042
1.4609047
1.3536472
1.2982632
1.2497044
1.2117094
1.2823649
1.4403019
1.6839069
2.0568201
2.6272949
3.4999054
4.8346419
6.8762432
9.9990776
14.775795
22.082343
33.258602
50.354099
76.503857
116.50331
177.68757
271.27689
414.43429
1.6705122
2.0638646
2.4993818
2.9085751
3.1343594
2.8498099
1.4014488
-2.4902585
-11.291674
-29.698717
-66.571756
-138.51672
1.3817673
1.2800039
1.2439888
1.2117133
1.1799415
1.1838076
1.2813751
1.4402763
1.6840034
2.0569434
2.62743
3.5000474
4.8347882
6.8763922
9.9992281
14.775946
22.082495
33.258754
50.354251
76.504009
116.50331
177.68742
271.27674
414.43414
1.3062831
1.5809244
1.9256801
2.2870127
2.5845386
2.6398213
2.0892087
0.21698215
-4.3617935
-14.293914
-34.587457
-74.646278
-152.02459
1.2054733
1.1871911
1.1707991
1.1517834
1.1342503
1.1781771
1.281138
1.440336
1.6841125
2.05707
2.6275668
3.5001906
4.8349353
6.8765417
9.9993789
14.776098
22.082647
33.258907
50.354403
76.504009
116.50316
177.68727
271.27658
414.43399
1.1318779
1.2351425
1.4888085
1.783009
2.0677501
2.2499168
2.1290071
1.3033456
-1.0076007
-6.2989552
-17.406436
-39.665094
-83.047879
-166.10079
1.128615
1.1274919
1.1209793
1.109996
1.1145556
1.177354
1.2811229
1.4404237
1.6842272
2.0571992
2.6277052
3.5003348
4.8350831
6.8766916
9.99953
14.77625
22.082799
33.259059
50.354403
76.503857
116.50301
177.68711
271.27643
414.43384
1.0690933
1.0612861
1.1678704
1.394061
1.6359882
1.841792
1.9049199
1.6020711
0.4922516
-2.2724142
-8.3019442
-20.629275
-44.93069
-91.772307
-180.73137
1.0824644
1.0879586
1.0867461
1.0824015
1.1101194
1.1771606
1.2811761
1.4405222
1.6843459
2.0573308
2.6278452
3.5004801
4.8352317
6.8768419
9.9996814
14.776402
22.082951
33.259059
50.354251
76.503705
116.50286
177.68696
271.27628
414.43369
1.0364832
1.0094862
0.99510036
1.1026842
1.2967009
1.4847985
1.6094138
1.5499042
1.0594119
-0.34365573
-3.5769473
-10.36986
-23.96035
-50.379011
-100.80633
-195.88346
1.0533478
1.0614795
1.0631468
1.0690964
1.1094135
1.1771491
1.2812526
1.4406267
1.6844679
2.0574647
2.6279868
3.5006266
4.8353809
6.8769927
9.999833
14.776554
22.082951
33.258907
50.354099
76.503552
116.5027
177.68681
271.27613
414.43353
1.0178739
0.99034175
0.95062494
0.93341725
1.0378815
1.1968204
1.3296646
1.3709704
1.1853842
0.50171086
-1.2034853
-4.9198918
-12.500375
-27.394851
-55.99936
-110.12553
-211.50104
1.0347589
1.0436675
1.04753
1.0656715
1.1092499
1.1771934
1.2813391
1.440736
1.6845932
2.057601
2.6281302
3.5007741
4.8355309
6.877144
9.999985
14.776554
22.082799
33.258754
50.353947
76.5034
116.50255
177.68666
271.27597
414.43338
1.0072873
0.98229252
0.94479049
0.89328487
0.87558696
0.97254096
1.0945611
1.1708542
1.1268979
0.81204001
-0.070035945
-2.0857889
-6.2989649
-14.689395
-30.92459
-61.77435
-119.69205
-227.50118
1.0228658
1.031706
1.0392121
1.0650456
1.1092382
1.1772574
1.2814321
1.4408496
1.6847219
2.0577398
2.6282752
3.5009228
4.8356816
6.8772958
9.999985
14.776402
22.082647
33.258602
50.353794
76.503248
116.5024
177.6865
271.27582
414.43323
1.0014188
0.97979494
0.94731127
0.90047809
0.83822853
0.82116783
0.90629008
0.99010035
1.0086786
0.87771486
0.43072194
-0.65449418
-2.9884887
-7.7107417
-16.930711
-34.537356
-67.678787
-129.45277
-243.77129
1.0152959
1.0238847
1.0366447
1.0649036
1.1092728
1.1773311
1.2815307
1.4409678
1.6848541
2.0578811
2.628422
3.5010727
4.835833
6.8772958
9.999833
14.77625
22.082495
33.25845
50.353642
76.503095
116.50225
177.68635
271.27567
414.43308
0.99833322
0.98004561
0.95295502
0.91352868
0.85791516
0.7863266
0.77020336
0.83902002
0.88364486
0.84349226
0.62402306
0.042452583
-1.2499764
-3.9088213
-9.1505099
-19.215703
-38.216359
-73.678714
-139.33791
-260.16778
1.0105348
1.0194201
1.0360728
1.0648904
1.1093245
1.1774118
1.2816352
1.4410908
1.6849899
2.058025
2.6285705
3.5012237
4.835833
6.877144
9.9996814
14.776098
22.082343
33.258298
50.35349
76.502943
116.50209
177.6862
271.27552
414.43292
0.99686019
0.9815399
0.959393
0.92731796
0.88139877
0.81746238
0.73857659
0.72262637
0.77074711
0.77542613
0.67569353
0.36650901
-0.35157313
-1.8544355
-4.8433014
-10.612164
-21.533101
-41.939814
-79.730864
-149.26066
-276.51683
1.0076016
1.0176549
1.0359481
1.064916
1.1093853
1.1774994
1.281746
1.441219
1.6851296
2.0581716
2.6287209
3.5012237
4.8356816
6.8769927
9.99953
14.775947
22.082191
33.258146
50.353338
76.502791
116.50194
177.68605
271.27536
414.43277
0.99627773
0.98341139
0.9654645
0.93989367
0.90324382
0.85121269
0.77933638
0.69560052
0.67758905
0.70155335
0.66569797
0.50572462
0.105945
-0.74998835
-2.4654658
-5.7877078
-12.088138
-23.868841
-45.680726
-85.782529
-159.11773
-292.61735
1.0059161
1.0171507
1.0359337
1.0649563
1.109454
1.1775947
1.2818635
1.4413526
1.6852733
2.0583209
2.6287209
3.5010727
4.8355309
6.8768419
9.9993789
14.775795
22.08204
33.257994
50.353185
76.502638
116.50179
177.68589
271.27521
414.43262
0.99609757
0.98493252
0.9699765
0.94944236
0.92078867
0.88033635
0.8229506
0.74359968
0.65698202
0.6339142
0.63155821
0.55473528
0.33407215
-0.15680935
-1.1512546
-3.0803075
-6.7370849
-13.569396
-26.206033
-49.406941
-91.772035
-168.79113
-308.24612
1.0051188
1.0170415
1.0359518
1.0650055
1.1095311
1.1776984
1.2819885
1.4414919
1.6854211
2.0583209
2.6285705
3.5009228
4.8353809
6.8766916
9.9992281
14.775644
22.081888
33.257842
50.353033
76.502485
116.50164
177.68574
271.27506
414.43246
0.99600134
0.98557742
0.97179806
0.95362465
0.92967032
0.89788378
0.85455946
0.79404108
0.70974714
0.62154858
0.59079459
0.56090428
0.44283356
0.16126781
-0.42080518
-1.5536611
-3.6958531
-7.6857586
-15.045451
-28.525043
-53.081467
-97.629804
-178.15115
-323.1653
1.0048389
1.0170272
1.0359826
1.0650634
1.109618
1.1778118
1.2821217
1.4416375
1.6854211
2.0581716
2.628422
3.5007741
4.8352317
6.8765416
9.9990776
14.775493
22.081736
33.25769
50.352881
76.502333
116.50148
177.68559
271.2749
414.43231
0.99586086
0.98554994
0.97190692
0.95408393
0.93103551
0.90159187
0.86438156
0.81718002
0.75597533
0.67237077
0.58729993
0.54782299
0.48974934
0.33030911
-0.0121104
-0.68500183
-1.9553222
-4.3086517
-8.6273581
-16.504435
-30.803695
-56.663092
-103.28004
-187.06048
-337.13144
1.0047044
1.0170398
1.0360222
1.0651315
1.1097166
1.1779363
1.2822639
1.4416375
1.6852733
2.058025
2.6282752
3.5006266
4.8350831
6.8763922
9.9989273
14.775342
22.081585
33.257538
50.352728
76.50218
116.50133
177.68543
271.27475
414.43215
0.99578566
0.98538655
0.97168998
0.95380804
0.93071393
0.90130194
0.86449765
0.81942704
0.76559075
0.70180028
0.62170125
0.54743754
0.50479019
0.41826195
0.21749982
-0.18543643
-0.94826335
-2.3541733
-4.9149104
-9.5548338
-17.933178
-33.017587
-60.107311
-108.643
-195.37926
-349.90594
1.0046641
1.0170634
1.0360713
1.0652124
1.1098293
1.1780735
1.2822639
1.4414919
1.6851296
2.0578811
2.6281302
3.5004801
4.8349353
6.8762432
9.9987773
14.775191
22.081433
33.257386
50.352576
76.502027
116.50118
177.68528
271.2746
414.432
0.99572381
0.98526055
0.97150718
0.95354528
0.93034073
0.90078175
0.86379601
0.81854036
0.76465444
0.70253677
0.63359456
0.55816798
0.49748623
0.46154888
0.34661814
0.1047663
-0.35803364
-1.2093541
-2.7479645
-5.5104911
-10.46048
-19.317339
-35.14054
-63.367545
-113.63784
-202.97093
-361.2659
1.0046828
1.0170956
1.0361332
1.0653102
1.1099595
1.1780735
1.2821217
1.4413526
1.6849899
2.0577398
2.6279868
3.5003348
4.8347883
6.8760946
9.9986275
14.77504
22.081282
33.257234
50.352423
76.501874
116.50102
177.68513
271.27444
414.43184
0.99566004
0.98518023
0.97138806
0.95336903
0.93008072
0.90039973
0.8632386
0.8177368
0.76351969
0.70098254
0.63152915
0.55781395
0.48566383
0.45119919
0.41791874
0.27499737
-0.0075066088
-0.52917138
-1.4669327
-3.1342513
-6.0909004
-11.335948
-20.641559
-37.145202
-66.396688
-118.18585
-209.70841
-371.01454
1.0047102
1.0171392
1.0362134
1.0654307
1.1099595
1.1779363
1.2819885
1.441219
1.6848541
2.057601
2.6278452
3.5001906
4.8346419
6.8759465
9.998478
14.77489
22.08113
33.257082
50.35227
76.501721
116.50087
177.68497
271.27429
414.43168
0.99561588
0.98512919
0.97131354
0.95325916
0.92991785
0.90015745
0.86287757
0.81719913
0.76272229
0.69980906
0.6298043
0.55512019
0.47941747
0.41588833
0.41478957
0.37355678
0.20357499
-0.11890867
-0.69806068
-1.7195447
-3.5103828
-6.6512774
-12.172271
-21.889706
-39.003854
-69.148952
-122.21403
-215.48
-378.98946
1.004742
1.0172004
1.0363212
1.0654307
1.1098293
1.1778118
1.2818635
1.4410908
1.6847219
2.0574647
2.6277052
3.5000474
4.8344962
6.8757988
9.9983288
14.774739
22.080979
33.256929
50.352118
76.501567
116.50071
177.68482
271.27413
414.43153
0.99558332
0.98509261
0.9712638
0.95318894
0.92981637
0.90000857
0.86265663
0.81686856
0.76222556
0.69906299
0.62868676
0.55341685
0.4764483
0.40214212
0.35759702
0.37993839
0.32768432
0.13250559
-0.2290042
-0.86384953
-1.9656135
-3.8734881
-7.1863765
-12.959914
-23.045239
-40.689445
-71.581935
-125.65856
-220.19424
-385.06719
1.0047857
1.0172925
1.0363212
1.0653102
1.1097166
1.1776984
1.281746
1.4409678
1.6845932
2.0573308
2.6275668
3.4999054
4.8343512
6.8756516
9.9981798
14.774589
22.080827
33.256777
50.351965
76.501413
116.50056
177.68466
271.27397
414.43136
0.99554987
0.98505967
0.97122497
0.9531391
0.92974904
0.89991426
0.86252092
0.81666915
0.7619281
0.69861579
0.62801497
0.55240978
0.47487164
0.398946
0.32975077
0.31421596
0.34218798
0.27881927
0.061883893
-0.33733595
-1.0256178
-2.2034299
-4.2204594
-7.6905566
-13.688883
-24.091759
-42.176849
-73.658712
-128.4676
-223.78238
-389.16223
1.0048585
1.0172925
1.0362134
1.0652124
1.109618
1.1775947
1.2816352
1.4408496
1.6844679
2.0571992
2.62743
3.4997645
4.834207
6.8755048
9.998031
14.774438
22.080676
33.256625
50.351812
76.501259
116.5004
177.6845
271.2738
414.43119
0.99550175
0.9850214
0.97118751
0.95309731
0.92969845
0.89984922
0.86243325
0.8165462
0.7617501
0.69835258
0.6276229
0.55183005
0.47401788
0.39755346
0.32584567
0.26848058
0.27978848
0.29953399
0.22543298
-0.0083607806
-0.4434383
-1.1823746
-2.4311414
-4.5479354
-8.1577845
-14.348955
-25.013793
-43.44422
-75.349573
-130.60272
-226.19759
-391.22213
1.0048585
1.0172004
1.0361332
1.0651315
1.1095311
1.1774994
1.2815307
1.440736
1.6843459
2.05707
2.6272949
3.4996247
4.8340637
6.8753589
9.997883
14.774289
22.080525
33.256474
50.35166
76.501106
116.50025
177.68434
271.27364
414.43102
0.98496564
0.97114317
0.95305517
0.92965384
0.89979815
0.8623709
0.81646555
0.76164023
0.69819652
0.62739587
0.55150016
0.47355046
0.39689385
0.32463707
0.25976183
0.22271351
0.24474243
0.25068757
0.16699949
-0.078802393
-0.54687679
-1.3330625
-2.6467433
-4.8522872
-8.5816749
-14.930077
-25.797765
-44.474156
-76.632856
-132.0383
-227.41171
-391.22213
0.99550176
1.0047857
1.0171392
1.0360713
1.0650634
1.109454
1.1774118
1.2814321
1.4406267
1.6842272
2.0569434
2.6271619
3.4994866
4.8339218
6.8752143
9.9977367
14.774141
22.080378
33.256326
50.351512
76.500957
116.5001
177.68419
271.27349
414.43084
0.97108234
0.95300596
0.92960791
0.89975152
0.86232036
0.81640708
0.76156784
0.69810089
0.62726323
0.55131301
0.47329338
0.39656436
0.32420868
0.25861217
0.20296974
0.19120718
0.20696936
0.19602146
0.10307707
-0.15148028
-0.6473797
-1.4765816
-2.8480776
-5.1296119
-8.9556046
-15.423004
-26.432941
-45.254284
-77.494545
-132.75941
-227.41171
-389.16223
0.98496564
0.99554988
1.004742
1.0170956
1.0360222
1.0650055
1.1093853
1.1773311
1.2813391
1.4405222
1.6841125
2.0568201
2.6270318
3.4993517
4.8337835
6.8750741
9.9975958
14.774001
22.08024
33.256191
50.35138
76.500831
116.49998
177.68408
271.27338
414.4307
0.95294156
0.92955525
0.89970355
0.86227375
0.81635909
0.76151518
0.69803848
0.62718357
0.55120635
0.47315213
0.39639523
0.32404813
0.25843528
0.20103228
0.15922864
0.16377366
0.16634464
0.1367379
0.032062234
-0.23065732
-0.74536108
-1.6119012
-3.032863
-5.3757521
-9.2729519
-15.820131
-26.912056
-45.777046
-77.926939
-132.75941
-226.19759
-385.06719
0.97108234
0.9850214
0.99558333
1.0047102
1.0170634
1.0359826
1.0649563
1.1093245
1.1772574
1.2812526
1.4404237
1.6840034
2.0567027
2.6269085
3.4992247
4.8336554
6.8749472
9.9974728
14.773885
22.080133
33.256096
50.351303
76.500778
116.49995
177.68409
271.27343
414.4307
0.92948929
0.8996497
0.86222614
0.81631465
0.76147193
0.69799373
0.62713312
0.55114474
0.47307513
0.39630853
0.32398689
0.25847786
0.20107702
0.15257655
0.12953333
0.13482666
0.12296948
0.073832333
-0.047719906
-0.3200404
-0.84366104
-1.7385803
-3.1988923
-5.586429
-9.5276002
-16.11648
-27.231446
-46.038898
-77.926939
-132.0383
-223.78239
-378.98947
0.95294156
0.97114317
0.98505967
0.99561588
1.0046828
1.0170398
1.0359518
1.064916
1.1092728
1.1771934
1.2811761
1.440336
1.6839069
2.0566003
2.6268038
3.4991218
4.833559
6.8748627
9.9974064
14.773844
22.080126
33.256138
50.35141
76.500968
116.50025
177.68453
271.27405
414.43124
0.89958517
0.86217269
0.81626929
0.76143229
0.69795776
0.6270984
0.5511081
0.4730339
0.39626592
0.32396619
0.2585495
0.20135488
0.15265756
0.11435185
0.10687766
0.10373839
0.077099481
0.0081404299
-0.13521258
-0.4203859
-0.94918342
-1.8587089
-3.3449689
-5.7578613
-9.7150972
-16.310797
-27.390632
-46.038898
-77.494546
-130.60273
-220.19424
-371.01455
0.92948929
0.95300596
0.97118751
0.98509261
0.99566003
1.0046642
1.0170272
1.0359337
1.0648904
1.1092382
1.1771491
1.2811229
1.4402763
1.683845
2.056542
2.6267565
3.4990947
4.8335635
6.874913
9.9975204
14.774045
22.080447
33.256618
50.352103
76.501945
116.50161
177.68639
271.27659
414.43366
0.86211213
0.8162209
0.76139273
0.69792558
0.62707185
0.55108522
0.47301271
0.39624763
0.32396404
0.25860969
0.20158991
0.15318711
0.1129284
0.087151829
0.084600284
0.070660427
0.029174907
-0.059371842
-0.22657875
-0.53004316
-1.0672049
-1.9792856
-3.4732697
-5.8883923
-9.8349002
-16.405933
-27.390632
-45.777046
-76.632857
-128.46761
-215.48
-361.2659
0.89958517
0.92955525
0.95305517
0.97122497
0.98512919
0.99572378
1.0047044
1.0170415
1.0359481
1.0649036
1.1092499
1.1771606
1.281138
1.4403019
1.6838913
2.0566236
2.6268924
3.4993099
4.8338903
6.8753934
9.9982107
14.77502
22.081806
33.258494
50.354672
76.505446
116.50637
177.69291
271.28562
414.44269
0.81616536
0.76135014
0.69789365
0.62704893
0.55106967
0.47300274
0.39624311
0.32397151
0.25865584
0.20175062
0.15362163
0.11366968
0.081393407
0.068001555
0.060858642
0.035920204
-0.020141399
-0.12744456
-0.31771383
-0.64333477
-1.1934767
-2.1052199
-3.5884334
-5.9789429
-9.8917972
-16.405933
-27.231447
-45.254284
-75.349575
-125.65857
-209.70842
-349.90595
0.86211213
0.8996497
0.92960791
0.95309731
0.9712638
0.98518023
0.9957856
1.0048388
1.0171507
1.0360728
1.0650456
1.1094135
1.177354
1.2813751
1.4406037
1.6842882
2.057157
2.6276185
3.5003029
4.8352491
6.8772504
10.000743
14.778466
22.086486
33.264839
50.363268
76.517129
116.52238
177.71516
271.31731
414.47595
0.76130365
0.69786031
0.62702746
0.55105804
0.47299929
0.39624673
0.32398467
0.25869256
0.20185576
0.15390943
0.11434201
0.081965626
0.058189034
0.050603401
0.035756941
1.5322379e-05
-0.069931541
-0.19446236
-0.4051207
-0.75176295
-1.3157435
-2.2262889
-3.6851668
-6.0275021
-9.8917972
-16.310798
-26.912057
-44.474158
-73.658714
-122.21404
-202.97094
-337.13145
0.81616536
0.86217269
0.89970355
0.92965384
0.9531391
0.97131354
0.98526055
0.99586081
1.0051187
1.0176549
1.0366447
1.0656715
1.1101194
1.1781771
1.2823649
1.441829
1.6858439
2.0591722
2.630267
3.5038185
4.8399467
6.8835551
10.009233
14.789938
22.102027
33.285957
50.392186
76.557261
116.57928
177.79848
271.44502
414.63042
0.69782526
0.62700563
0.55104816
0.47299951
0.39625533
0.32400169
0.25872438
0.20192672
0.15408904
0.11479303
0.082900983
0.057023636
0.04195377
0.032496035
0.0096609102
-0.036364453
-0.11900479
-0.25845611
-0.48545459
-0.84756342
-1.4199118
-2.3217715
-3.7427824
-6.0275021
-9.8349005
-16.116481
-26.432942
-43.444221
-71.581937
-118.18585
-195.37927
-323.16531
0.76130365
0.8162209
0.86222614
0.89975152
0.92969845
0.95318894
0.97138806
0.98538655
0.99600128
1.005916
1.0194201
1.0392121
1.0690963
1.1145556
1.1838076
1.2893547
1.4502809
1.6958081
2.0708516
2.6444226
3.5225583
4.8709336
6.9386039
10.094472
14.907663
22.257079
33.489815
50.665287
76.933597
117.11539
178.59141
272.66895
0.62698259
0.5510391
0.47300212
0.39626731
0.32402186
0.25875443
0.20197876
0.15420198
0.11507019
0.083562498
0.05816902
0.038225658
0.028171267
0.013563013
-0.016908856
-0.0723243
-0.16590597
-0.31716295
-0.55530235
-0.92484601
-1.4948595
-2.3740029
-3.7427825
-5.978943
-9.7150976
-15.820131
-25.797767
-42.176851
-69.148955
-113.63784
-187.06049
-308.24614
0.69782526
0.76135014
0.81626929
0.86227375
0.89979815
0.92974904
0.95325916
0.97150718
0.98554994
0.9960975
1.0076015
1.0238846
1.0475299
1.0824014
1.1342502
1.2117093
1.3278429
1.502606
1.7668202
2.1684633
2.785228
3.7485926
5.2379161
7.4973576
10.891365
15.993421
23.69095
35.34626
53.053799
80.033487
121.2312
184.25476
0.55102944
0.47300606
0.39628221
0.32404489
0.2587849
0.20202151
0.15427732
0.11523763
0.083971364
0.059096191
0.038957585
0.024700744
0.014418796
-0.0058241421
-0.043275018
-0.10677122
-0.20896223
-0.3681524
-0.61132376
-0.97910193
-1.5338667
-2.3740029
-3.6851668
-5.8883925
-9.5276005
-15.423004
-25.013794
-40.689446
-66.396691
-108.64301
-178.15116
-292.61736
0.62698259
0.69786031
0.76139273
0.81631465
0.86232036
0.89984922
0.92981637
0.95336903
0.97168998
0.98557741
0.99627765
1.0105347
1.0317059
1.0631467
1.1099959
1.1799413
1.2844537
1.4406583
1.6741578
2.0236204
2.5566883
3.4051002
4.7412673
6.7207016
9.5682863
13.681788
19.682567
28.510288
41.587995
61.104226
90.466054
134.9997
0.47301174
0.39629942
0.32407056
0.25881715
0.20206077
0.15433306
0.11534205
0.084213306
0.059685704
0.040195002
0.02430233
0.01384496
0.00029629382
-0.025151916
-0.068609946
-0.13844989
-0.24637739
-0.40901925
-0.65055902
-1.007092
-1.5338667
-2.3217716
-3.5884336
-5.7578615
-9.2729524
-14.930078
-24.091759
-39.003856
-63.367548
-103.28005
-168.79114
-276.51685
0.55102944
0.62700563
0.69789365
0.76143229
0.81635909
0.8623709
0.89991426
0.92991785
0.95354528
0.97190692
0.98493247
0.9968601
1.0152958
1.0436674
1.086746
1.1517833
1.2497043
1.3969691
1.6184581
1.9526176
2.473272
3.3213829
4.656348
6.6079908
9.3973279
13.3636
18.973137
26.869317
38.028065
53.996563
77.205629
111.51454
0.39631809
0.32409982
0.25885234
0.20210033
0.15438003
0.11541275
0.084357189
0.060033176
0.041031127
0.025717839
0.013500625
0.0034966439
-0.013854105
-0.043790562
-0.091963845
-0.16601409
-0.27637518
-0.43762711
-0.67077759
-1.007092
-1.4948595
-2.2262889
-3.4732698
-5.5864294
-8.9556049
-14.348956
-23.04524
-37.145204
-60.107314
-97.629811
-159.11774
-260.16779
0.47301174
0.5510391
0.62702746
0.69792558
0.76147193
0.81640708
0.86243325
0.90000857
0.93008072
0.95380804
0.97179806
0.98341131
0.99833311
1.0228657
1.0614794
1.1209792
1.2117132
1.3494054
1.5580246
1.8756535
2.3824348
3.2192945
4.525051
6.4201429
9.1243781
12.970175
18.408633
26.033108
36.631876
51.303762
71.7391
100.74011
0.32413177
0.2588912
0.20214255
0.15442477
0.11546708
0.084447366
0.060233719
0.041530427
0.026880546
0.014687591
0.005126729
-0.0068413246
-0.027553965
-0.061017875
-0.1123197
-0.18813425
-0.29737901
-0.45236508
-0.67077759
-0.97910193
-1.4199118
-2.1052199
-3.3449691
-5.3757523
-8.5816756
-13.688883
-21.889708
-35.140542
-56.663095
-91.772039
-149.26067
-243.77131
0.39631809
0.47300606
0.55104816
0.62704893
0.69795776
0.76151518
0.81646555
0.86252092
0.90015745
0.93034073
0.95408393
0.96997646
0.9815398
1.0014187
1.0347588
1.0879585
1.170799
1.2982631
1.4934296
1.7948629
2.290262
3.1162291
4.3886142
6.2237129
8.8368811
12.548032
17.787939
25.118027
35.266995
49.186942
68.18902
94.299197
0.25893577
0.20218918
0.15447138
0.11551541
0.084510296
0.060351989
0.041814806
0.02759738
0.016230187
0.0064729835
-0.0025211981
-0.016889698
-0.04025249
-0.076062208
-0.12867493
-0.20363172
-0.30820087
-0.45236508
-0.65055902
-0.92484601
-1.3157435
-1.9792858
-3.1988926
-5.1296123
-8.1577852
-12.959915
-20.641561
-33.017589
-53.08147
-85.782531
-139.33792
-227.50119
0.32413177
0.39629942
0.47300212
0.55105804
0.62707185
0.69799373
0.76156784
0.8165462
0.86265663
0.90039973
0.93071393
0.95362465
0.96546442
0.9800455
1.0072872
1.0533476
1.1274917
1.2439886
1.4250927
1.7113895
2.1978598
3.0121543
4.2473565
6.0202353
8.5398437
12.112431
17.147054
24.170726
33.854403
47.046879
64.849659
88.828702
0.20224269
0.15452364
0.11556436
0.084561556
0.060427161
0.041975678
0.028006626
0.017251148
0.0082331635
0.00022748702
-0.0098709545
-0.026231232
-0.051363008
-0.088165144
-0.14014244
-0.21161926
-0.30820087
-0.43762711
-0.61132376
-0.84756341
-1.1934767
-1.8587091
-3.0328633
-4.8522876
-7.6905572
-12.172272
-19.31734
-30.803697
-49.406944
-79.730866
-129.45277
-211.50105
0.25893577
0.32409982
0.39628221
0.47299951
0.55106967
0.6270984
0.69803848
0.76164023
0.81666915
0.86287757
0.90078175
0.93103551
0.94944231
0.9593929
0.97979481
1.0178737
1.0824642
1.187191
1.353647
1.6268254
2.1063821
2.9063833
4.1008741
5.8094026
8.2329808
11.663347
16.487319
23.196658
32.403417
44.854927
61.468614
83.454439
0.15458343
0.11561861
0.084611003
0.060482254
0.042070208
0.028232965
0.017843956
0.0096549998
0.0023117863
-0.0052489421
-0.016721564
-0.034419673
-0.060311609
-0.096657745
-0.14605547
-0.21161926
-0.29737901
-0.40901925
-0.55530235
-0.75176295
-1.067205
-1.7385806
-2.8480779
-4.5479359
-7.1863771
-11.335949
-17.93318
-28.525045
-45.680729
-73.67872
-119.69206
-195.88348
0.20224269
0.2588912
0.32407056
0.39626731
0.47299929
0.55108522
0.62713312
0.69810089
0.7617501
0.81686856
0.8632386
0.90130194
0.92967031
0.93989358
0.95295489
0.98229236
1.036483
1.1286148
1.2800037
1.5428826
2.0168735
2.7980489
3.9487946
5.5908762
7.9158708
11.200211
15.807963
22.194916
30.913195
42.607471
58.012657
78.00246
0.11568328
0.084665385
0.060531125
0.042131928
0.028358655
0.018169856
0.010508665
0.0041155745
-0.0021226572
-0.010257558
-0.022738149
-0.041021294
-0.06659474
-0.10103861
-0.14605547
-0.20363172
-0.27637518
-0.3681524
-0.48545459
-0.64333478
-0.94918352
-1.6119015
-2.6467437
-4.2204599
-6.6512781
-10.460481
-16.504436
-26.206035
-41.939817
-67.678791
-110.12554
-180.73138
0.15458343
0.20218918
0.25885234
0.32404489
0.39625533
0.47300274
0.5511081
0.62718357
0.69819652
0.7619281
0.81719913
0.86379601
0.90159187
0.9207886
0.92731784
0.94731112
0.99034157
1.0690931
1.2054731
1.4609045
1.929654
2.6863657
3.7907878
5.3643139
7.5880713
10.72242
15.108101
21.164184
29.381812
40.301484
54.473872
72.43708
0.084731045
0.060583374
0.042180758
0.028432692
0.018344945
0.010981618
0.0053192381
0.00010862725
-0.0058650827
-0.014663276
-0.02759343
-0.045658424
-0.069836775
-0.10103861
-0.14014244
-0.18813425
-0.24637739
-0.31716295
-0.4051207
-0.53004318
-0.8436612
-1.4765819
-2.4311418
-3.8734885
-6.090901
-9.5548348
-15.045453
-23.868843
-38.216362
-61.774355
-100.80634
-166.10079
0.11568328
0.15452364
0.20214255
0.25881715
0.32402186
0.39624673
0.47301271
0.55114474
0.62726323
0.69835258
0.76222556
0.8177368
0.86449765
0.89788376
0.90324371
0.91352855
0.94479033
1.0094861
1.1318777
1.3817671
1.843848
2.5707581
3.6265623
5.1293694
7.2491181
10.229339
14.386801
20.103059
27.807167
37.933857
50.847395
66.747705
0.060648528
0.042229973
0.028483622