/*--------------------------------*- C++ -*----------------------------------*\
| =========                 |                                                 |
| \\      /  F ield         | OpenFOAM: The Open Source CFD Toolbox           |
|  \\    /   O peration     | Version:  2212                                  |
|   \\  /    A nd           | Website:  www.openfoam.com                      |
|    \\/     M anipulation  |                                                 |
\*---------------------------------------------------------------------------*/
FoamFile
{
    version     2.0;
    format      ascii;
    arch        "LSB;label=32;scalar=64";
    class       volScalarField;
    location    "0";
    object      Cz;
}
// * * * * * * * * * * * * * * * * * * * * * * * * * * * * * * * * * * * * * //

dimensions      [0 1 0 0 0 0 0];

internalField   nonuniform List<scalar> 
3584
(
-389.23981
-389.32026
-224.67676
-388.43747
-224.79539
-129.69836
-389.38639
-224.91016
-129.75687
-74.874379
-394.43824
-224.28428
-129.84872
-74.904772
-43.226044
-400.80717
-224.95254
-129.97081
-74.951567
-43.242198
-24.955454
-405.50954
-228.93707
-129.51298
-75.023947
-43.266987
-24.964165
-14.407536
-407.57038
-233.48834
-130.04268
-75.142081
-43.304903
-24.977511
-14.412276
-8.3179494
-408.37992
-236.0186
-133.33139
-74.797072
-43.363452
-24.997928
-14.419532
-8.320541
-4.8022418
-408.86252
-236.95354
-136.36548
-75.284714
-43.472707
-25.029174
-14.430633
-8.3245072
-4.8036619
-2.7725043
-409.25037
-237.44955
-137.56938
-78.014667
-43.207508
-25.077341
-14.447618
-8.3305747
-4.8058351
-2.7732828
-1.6006646
-409.57429
-237.85634
-138.07603
-79.770557
-43.715533
-25.175845
-14.47362
-8.3398572
-4.8091595
-2.7744742
-1.601091
-0.9241187
-409.83348
-238.22364
-138.46397
-80.351749
-45.847939
-24.974242
-14.513645
-8.3540616
-4.8142451
-2.7762967
-1.6017437
-0.92435196
-0.53352367
-410.02369
-238.55365
-138.82309
-80.710664
-46.731462
-25.520108
-14.600774
-8.3758104
-4.8220255
-2.7790844
-1.6027421
-0.92470896
-0.53365098
-0.30801854
-410.13998
-238.84382
-139.16
-81.039011
-47.079342
-27.005538
-14.456756
-8.4092505
-4.8339315
-2.7833491
-1.6042693
-0.92525505
-0.53384583
-0.30808783
-0.17782592
-410.17683
-239.09099
-139.47334
-81.353259
-47.369475
-27.447787
-15.004544
-8.4846732
-4.852162
-2.7898737
-1.6066054
-0.92609038
-0.53414387
-0.30819389
-0.17786351
-0.10266079
-410.12809
-239.29163
-139.76106
-81.653179
-47.648724
-27.703806
-15.929536
-8.393024
-4.8801614
-2.7998577
-1.6101792
-0.92736815
-0.53459979
-0.30835613
-0.17792106
-0.10268111
-0.059265117
-409.98682
-239.44176
-140.02083
-81.937426
-47.918984
-27.944511
-16.189834
-8.8797945
-4.9435764
-2.8151446
-1.6156468
-0.92932281
-0.53529719
-0.30860429
-0.17800908
-0.10271221
-0.059276047
-0.034211144
-409.74523
-239.53693
-140.25005
-82.204448
-48.179402
-28.179174
-16.393742
-9.4217457
-4.891697
-2.8386006
-1.6240136
-0.93231311
-0.53636403
-0.30898391
-0.17814373
-0.10275979
-0.059292781
-0.034216994
-0.019746533
-409.39455
-239.57213
-140.44582
-82.452506
-48.428908
-28.40748
-16.592062
-9.6023007
-5.269738
-2.8893327
-1.6368243
-0.93688815
-0.53799604
-0.30956461
-0.17834969
-0.10283256
-0.059318377
-0.03422595
-0.019749645
-0.011395562
-408.92481
-239.54169
-140.60484
-82.679647
-48.666317
-28.628684
-16.7861
-9.7663728
-5.5929261
-2.8659206
-1.6564763
-0.9438893
-0.54049279
-0.31045294
-0.17866475
-0.10294387
-0.059357531
-0.034239651
-0.01975441
-0.011397206
-0.0065742294
-408.32471
-239.4392
-140.72341
-82.883677
-48.890292
-28.841949
-16.975374
-9.9273665
-5.731442
-3.1256181
-1.6953141
-0.95460976
-0.54431291
-0.31181194
-0.17914672
-0.10311415
-0.059417424
-0.034260609
-0.019761699
-0.011399723
-0.0065750901
-0.0037906903
-407.58136
-239.25738
-140.79733
-83.06212
-49.099324
-29.046336
-17.159297
-10.085248
-5.8641177
-3.3393131
-1.6979181
-0.97105704
-0.55015928
-0.31389111
-0.17988404
-0.10337464
-0.059509043
-0.034292667
-0.019772849
-0.011403573
-0.0065764085
-0.0037911364
-0.0021836471
-406.68003
-238.98794
-140.82185
-83.212187
-49.291742
-29.240807
-17.337228
-10.239634
-5.9946788
-3.45127
-1.8693172
-1.0009874
-0.55911257
-0.31707254
-0.18101205
-0.10377312
-0.059649193
-0.034341706
-0.019789905
-0.011409463
-0.0065784251
-0.0037918197
-0.0021838754
-0.0012558399
-405.60384
-238.62143
-140.79157
-83.33072
-49.465647
-29.424193
-17.508455
-10.390094
-6.1229489
-3.5602883
-2.0134795
-1.0219843
-0.57285282
-0.32194199
-0.18273796
-0.10438275
-0.059863593
-0.034416723
-0.019815994
-0.011418472
-0.0065815097
-0.0037928651
-0.0021842251
-0.0012559548
-0.00072018136
-238.147
-404.33334
-140.70034
-83.414159
-49.618911
-29.5952
-17.672194
-10.536152
-6.2486617
-3.6675844
-2.1061436
-1.1489512
-0.59743439
-0.32940065
-0.18537913
-0.10531549
-0.060191594
-0.03453148
-0.019855904
-0.011432254
-0.0065862282
-0.003794464
-0.0021847601
-0.001256131
-0.00072023808
-0.0004109253
-140.54116
-237.55229
-402.8462
-83.458453
-49.749145
-29.752385
-17.827576
-10.677275
-6.3715165
-3.7729811
-2.1975215
-1.2455669
-0.62271156
-0.34085262
-0.1894223
-0.10674276
-0.060693426
-0.034707041
-0.019916957
-0.011453335
-0.0065934461
-0.0037969098
-0.0021855784
-0.0012564004
-0.00072032498
-0.00041095253
-0.00023238
-83.459023
-140.30606
-236.82304
-401.11655
-49.85365
-29.894131
-17.973636
-10.812877
-6.4911693
-3.8762788
-2.2875642
-1.3187233
-0.7181206
-0.36128851
-0.195617
-0.10892722
-0.061461298
-0.03497564
-0.020010357
-0.011485585
-0.0066044872
-0.0038006512
-0.0021868302
-0.0012568126
-0.00072045792
-0.00041099425
-0.00023239258
-0.00012929899
-49.929399
-83.410668
-139.98589
-235.94289
-399.11454
-30.018644
-18.109304
-10.942302
-6.6072255
-3.9772447
-2.375606
-1.3893654
-0.78715901
-0.38621794
-0.20513467
-0.11227194
-0.062636446
-0.035386624
-0.020153252
-0.01153492
-0.0066213773
-0.0038063744
-0.002188745
-0.001257443
-0.00072066126
-0.00041105805
-0.00023241186
-0.0001293045
-6.9786393e-05
-30.123911
-49.972978
-83.307491
-139.57025
-234.89304
-396.80561
-18.233386
-11.064819
-6.7192299
-4.0755921
-2.4610415
-1.4578994
-0.84603277
-0.45517664
-0.22197551
-0.1173983
-0.064435358
-0.036015564
-0.020371892
-0.011610399
-0.0066472157
-0.0038151293
-0.002191674
-0.0012584074
-0.0007209723
-0.00041115566
-0.00023244135
-0.00012931293
-6.9788608e-05
-3.5427502e-05
-18.344553
-30.207691
-49.980542
-83.142794
-139.0472
-233.65183
-394.14974
-11.179613
-6.8266553
-4.1709623
-2.543452
-1.5247999
-0.9017017
-0.50579977
-0.24503292
-0.12528171
-0.067190454
-0.036978251
-0.020706471
-0.011725885
-0.0066867454
-0.0038285224
-0.0021961547
-0.0012598826
-0.00072144809
-0.00041130496
-0.00023248646
-0.00012932583
-6.9792e-05
-3.5428274e-05
-1.5590804e-05
-11.285768
-18.44132
-30.267471
-49.947763
-82.908987
-138.40316
-232.19442
-391.10074
-6.9288911
-4.2629187
-2.6225856
-1.5904251
-0.95359471
-0.55140334
-0.29428208
-0.13903539
-0.07141491
-0.038452262
-0.021218567
-0.011902604
-0.0067472263
-0.003849012
-0.002203009
-0.0012621393
-0.0007221759
-0.00041153334
-0.00023255546
-0.00012934557
-6.9797188e-05
-3.5429457e-05
-1.5591008e-05
-4.1383217e-06
-7.0252331
-11.382253
-18.522025
-30.300442
-49.869767
-82.597452
-137.62259
-230.49224
-387.60526
-4.3509458
-2.6982561
-1.6545445
-1.0012973
-0.59393603
-0.33211296
-0.15933468
-0.077919201
-0.040710432
-0.02200257
-0.012173073
-0.0068397733
-0.0038803607
-0.0022134951
-0.0012655915
-0.00072328924
-0.00041188268
-0.00023266101
-0.00012937576
-6.9805124e-05
-3.5431266e-05
-1.5591321e-05
-4.1383504e-06
4.2453657e-06
-4.4344529
-7.1148727
-11.467903
-18.584805
-30.303457
-49.74107
-82.198449
-136.68782
-228.51267
-383.60206
-2.7702534
-1.7161858
-1.0448668
-0.63283494
-0.36659222
-0.19448072
-0.08909935
-0.044174645
-0.023203297
-0.012587125
-0.0069814109
-0.0039283286
-0.0022295381
-0.0012708727
-0.00072499235
-0.00041241707
-0.00023282246
-0.00012942194
-6.9817264e-05
-3.5434033e-05
-1.5591798e-05
-4.1383944e-06
4.2453945e-06
1.5697848e-05
-2.8382991
-4.512782
-7.1968909
-11.541399
-18.627568
-30.272987
-49.555505
-81.700948
-135.57876
-226.21846
-379.02117
-1.7742629
-1.0849958
-0.66758016
-0.39796791
-0.22271382
-0.10623944
-0.049517106
-0.025043386
-0.013221177
-0.0071982267
-0.0040017376
-0.0022540856
-0.0012789524
-0.00072759777
-0.00041323454
-0.00023306944
-0.00012949258
-6.9835834e-05
-3.5438266e-05
-1.559253e-05
-4.1384617e-06
4.2454385e-06
1.5698052e-05
3.5534546e-05
-1.8282302
-2.9020425
-4.5852157
-7.2702547
-11.601256
-18.647966
-30.20508
-49.30615
-81.092539
-134.27274
-223.5675
-373.78328
-1.1227767
-0.69775406
-0.42568834
-0.24809204
-0.13132927
-0.058571329
-0.027867764
-0.014192511
-0.0075302174
-0.0041141046
-0.0022916511
-0.0012913148
-0.00073158375
-0.00041448509
-0.00023344723
-0.00012960064
-6.986424e-05
-3.544474e-05
-1.5593648e-05
-4.1385646e-06
4.2455058e-06
1.5698365e-05
3.5535318e-05
6.9893437e-05
-1.1593766
-1.8780194
-2.9610741
-4.6509866
-7.3338191
-11.645801
-18.643367
-30.095311
-48.985255
-80.359298
-132.74426
-220.51242
-367.79947
-0.72310761
-0.44927566
-0.2703351
-0.15201606
-0.07252858
-0.032233711
-0.015681511
-0.0080387338
-0.00428615
-0.0023491491
-0.0013102325
-0.00073768234
-0.00041639825
-0.00023402517
-0.00012976594
-6.9907691e-05
-3.5454644e-05
-1.5595359e-05
-4.1387221e-06
4.2456087e-06
1.5698843e-05
3.5536501e-05
6.9895652e-05
0.00012940603
-0.74365836
-1.195549
-1.9236853
-3.0149426
-4.7092864
-7.3863332
-11.673168
-18.610832
-29.938751
-48.584182
-79.485691
-130.96491
-217.00059
-360.97139
-0.46837642
-0.28894168
-0.16995929
-0.090301381
-0.039520302
-0.017968337
-0.008817946
-0.0045496513
-0.0024371786
-0.0013391865
-0.0007470143
-0.0004193253
-0.00023490931
-0.0001300188
-6.9974157e-05
-3.5469793e-05
-1.5597975e-05
-4.138963e-06
4.2457662e-06
1.5699574e-05
3.553831e-05
6.9899044e-05
0.00012941154
0.00023248704
-0.48280074
-0.75987085
-1.2306766
-1.9652102
-3.0631699
-4.7592739
-7.4264519
-11.681299
-18.547097
-29.72993
-48.093361
-78.454551
-128.9034
-212.97437
-353.19229
-0.30352443
-0.18474887
-0.10490013
-0.050483091
-0.021516862
-0.010012736
-0.0049533554
-0.0025719918
-0.0013835118
-0.00076129628
-0.00042380403
-0.00023626197
-0.00013040562
-7.0075831e-05
-3.5492966e-05
-1.5601977e-05
-4.1393314e-06
4.246007e-06
1.5700692e-05
3.5541077e-05
6.9904232e-05
0.00012941998
0.00023249963
0.00041103234
-0.31385571
-0.49254422
-0.77286926
-1.2630789
-2.0024726
-3.1052618
-4.800085
-7.4527516
-11.667955
-18.448577
-29.462825
-47.502286
-77.247097
-126.5257
-208.3717
-344.34886
-0.19598288
-0.11674854
-0.062748005
-0.02731442
-0.011848913
-0.0055720747
-0.0027785165
-0.0014513884
-0.00078315875
-0.00043065803
-0.0002383316
-0.0001309974
-7.0231367e-05
-3.5528414e-05
-1.56081e-05
-4.1398949e-06
4.2463754e-06
1.5702403e-05
3.554531e-05
6.9912168e-05
0.00012943288
0.00023251891
0.00041105958
0.0007202884
-0.20342145
-0.31989194
-0.49778958
-0.78401906
-1.2917079
-2.0352772
-3.1407154
-4.8308394
-7.4637481
-11.630738
-18.311376
-29.130886
-46.799557
-75.84309
-123.79555
-203.12736
-334.32434
-0.12547297
-0.072348458
-0.035540564
-0.014717544
-0.0065209425
-0.0030949847
-0.001555362
-0.00081663437
-0.00044114909
-0.00024149865
-0.00013190282
-7.0469308e-05
-3.558264e-05
-1.5617465e-05
-4.140757e-06
4.246939e-06
1.5705019e-05
3.5551784e-05
6.9924309e-05
0.00012945262
0.0002325484
0.00041110129
0.00072034512
0.0012559469
-0.13083189
-0.20701565
-0.32177187
-0.49889382
-0.79420779
-1.3164611
-2.0633876
-3.1690244
-4.8506487
-7.4579161
-11.567118
-18.131332
-28.727081
-45.972996
-74.221126
-120.67509
-197.17469
-323.00268
-0.079193588
-0.043490938
-0.019232358
-0.0079803486
-0.0035800474
-0.0017146721
-0.0008679077
-0.00045721137
-0.00024634587
-0.00013328823
-7.0833336e-05
-3.5665592e-05
-1.5631791e-05
-4.1420755e-06
4.247801e-06
1.5709021e-05
3.5561688e-05
6.9942878e-05
0.0001294828
0.00023259351
0.0004111651
0.00072043203
0.0012560618
0.0021837541
-0.083051467
-0.13278464
-0.2069037
-0.31978989
-0.49638247
-0.80415264
-1.3375181
-2.0865476
-3.1896838
-4.8586235
-7.4337094
-11.474479
-17.904068
-28.243999
-45.009844
-72.359076
-117.12607
-190.44816
-310.27422
-0.048944538
-0.024952585
-0.010279417
-0.0043240156
-0.0019588128
-0.00094646363
-0.00048181076
-0.00025376638
-0.00013540844
-7.1390312e-05
-3.5792495e-05
-1.5653705e-05
-4.1440925e-06
4.2491196e-06
1.5715144e-05
3.5576837e-05
6.9971284e-05
0.00012952899
0.00023266251
0.0004112627
0.00072056496
0.001256238
0.0021839824
0.0037907973
-0.05172357
-0.083895116
-0.13148479
-0.20337886
-0.31435241
-0.49096677
-0.81479959
-1.3549993
-2.104495
-3.2021931
-4.85388
-7.3895795
-11.35016
-17.625075
-27.673982
-43.897043
-70.234744
-113.11113
-182.88636
-296.04193
-0.029387382
-0.013628753
-0.0054695094
-0.0023330074
-0.0010668417
-0.0005194961
-0.00026512953
-0.00013865385
-7.2242615e-05
-3.5986647e-05
-1.5687228e-05
-4.1471778e-06
4.2511366e-06
1.5724509e-05
3.560001e-05
7.0014735e-05
0.00012959963
0.00023276805
0.000411412
0.0007207683
0.0012565075
0.0021843322
0.0037912434
0.0065743364
-0.03139795
-0.051816672
-0.081900709
-0.1272388
-0.19683851
-0.3059288
-0.48355264
-0.82643955
-1.3689263
-2.1169677
-3.2060589
-4.8355454
-7.3239935
-11.191498
-17.289802
-27.009313
-42.621625
-67.826682
-108.59571
-174.43573
-280.22858
-0.016982137
-0.0072630879
-0.0029069656
-0.0012513165
-0.00057724151
-0.00028253543
-0.00014362289
-7.3547064e-05
-3.6283714e-05
-1.5738513e-05
-4.1518973e-06
4.2542219e-06
1.5738835e-05
3.5635458e-05
7.0081201e-05
0.00012970769
0.00023292951
0.00041164038
0.00072107934
0.0012569196
0.0021848671
0.0037919268
0.0065751972
0.011395669
-0.018452455
-0.030989246
-0.04942348
-0.077370258
-0.12042357
-0.18771857
-0.29500291
-0.47524055
-0.83768351
-1.3792561
-2.1237077
-3.2007976
-4.8027637
-7.2354494
-10.995877
-16.893758
-26.242422
-41.171161
-65.115186
-103.54995
-165.05439
-262.78402
-0.009385537
-0.0037921557
-0.0015340283
-0.00066573181
-0.00030920462
-0.00015123331
-7.5543986e-05
-3.6738311e-05
-1.5816973e-05
-4.1591167e-06
4.2589414e-06
1.5760749e-05
3.5689684e-05
7.0182875e-05
0.00012987298
0.00023317648
0.00041198972
0.00072155514
0.0012575501
0.0021856855
0.0037929721
0.0065765156
0.011397313
0.01974664
-0.010472988
-0.0179117
-0.02871884
-0.045117085
-0.070605919
-0.11108035
-0.17622308
-0.2819722
-0.46715491
-0.84682549
-1.3859118
-2.1244622
-3.1859371
-4.7547007
-7.1224905
-10.760763
-16.432609
-25.36613
-39.53431
-62.083414
-97.950961
-154.71621
-243.69171
-0.0050291601
-0.0019676874
-0.00080132457
-0.00035007247
-0.00016289258
-7.8601847e-05
-3.7434102e-05
-1.5937021e-05
-4.1701604e-06
4.2661607e-06
1.5794272e-05
3.5772636e-05
7.0338411e-05
0.00013012584
0.00023355428
0.00041252411
0.00072228295
0.0012585145
0.0021869373
0.003794571
0.0065785321
0.01139983
0.019749752
0.034211251
-0.0058616212
-0.010417416
-0.016994699
-0.02676538
-0.041516447
-0.064258833
-0.10076165
-0.16165123
-0.26613451
-0.45955245
-0.85323604
-1.3887995
-2.1189846
-3.1610181
-4.6905483
-6.9837168
-10.483745
-15.902286
-24.373896
-37.7014
-58.718615
-91.78507
-143.41454
-222.97441
-0.0026445903
-0.0010090871
-0.00041269518
-0.00018075846
-8.3285749e-05
-3.8499315e-05
-1.6120722e-05
-4.1870548e-06
4.2772045e-06
1.5845557e-05
3.5899539e-05
7.0576352e-05
0.00013051266
0.00023413222
0.00041334159
0.00072339628
0.0012599897
0.002188852
0.0037970169
0.0065816168
0.011403681
0.019754517
0.034217101
0.059265224
-0.0033581696
-0.0064019436
-0.010807369
-0.017189109
-0.02655451
-0.040543461
-0.06196653
-0.095622937
-0.15032319
-0.24734017
-0.44962412
-0.8569068
-1.3878156
-2.1070343
-3.125595
-4.6095287
-6.8177978
-10.162567
-15.299078
-23.260104
-35.665072
-55.013384
-85.049947
-131.16542
-200.69783
-0.0013546175
-0.00050863461
-0.0002081359
-9.046227e-05
-4.013057e-05
-1.6401878e-05
-4.2129008e-06
4.2940989e-06
1.5924017e-05
3.6093691e-05
7.094038e-05
0.00013110445
0.00023501636
0.00041459214
0.00072509939
0.0012622464
0.0021917811
0.0038007582
0.0065863353
0.01140957
0.019761806
0.034226058
0.059276154
0.1026609
-0.0020109673
-0.0043076495
-0.0075666156
-0.012156984
-0.018682761
-0.028086714
-0.041896194
-0.062684059
-0.094974372
-0.1473952
-0.23651138
-0.43384624
-0.85783246
-1.3828494
-2.0883755
-3.0792372
-4.5108984
-6.6234824
-9.7951588
-14.61974
-22.020351
-33.420982
-50.966925
-77.756489
-118.00974
-176.97173
-0.00066694953
-0.00025008213
-0.00010145955
-4.2629413e-05
-1.6832288e-05
-4.2524442e-06
4.3199449e-06
1.6044065e-05
3.6390758e-05
7.1497356e-05
0.00013200986
0.00023636902
0.00041650529
0.00072770481
0.0012656985
0.0021962617
0.0038064814
0.0065935531
0.011418579
0.019772956
0.034239758
0.059292888
0.10268122
0.17782603
-0.0012991277
-0.003217397
-0.0058556873
-0.0094713243
-0.014446597
-0.021348083
-0.031054303
-0.044998793
-0.065639512
-0.097373981
-0.1483734
-0.23520706
-0.43059656
-0.8559172
-1.373781
-2.0627765
-3.0215286
-4.393952
-6.3996105
-9.3796725
-13.861608
-20.651797
-30.968522
-46.586212
-69.930198
-104.01396
-151.94733
-0.0003163996
-0.00011831081
-4.6458232e-05
-1.7491374e-05
-4.3129504e-06
4.3594883e-06
1.6227766e-05
3.6845355e-05
7.2349659e-05
0.00013339528
0.00023843865
0.00041943234
0.00073169079
0.0012709797
0.0022031161
0.0038152363
0.0066045942
0.011432361
0.019790012
0.034260716
0.059318485
0.10271232
0.17786362
0.30801864
-0.00094167354
-0.0026536446
-0.0049551542
-0.0080379849
-0.012160635
-0.017679584
-0.025111448
-0.035256932
-0.049449748
-0.070053524
-0.10144968
-0.15202333
-0.2388149
-0.44469605
-0.85109168
-1.3604769
-2.0300075
-2.9520683
-4.2580264
-6.1451261
-8.9145193
-13.022739
-19.153568
-28.311594
-41.886927
-61.611692
-89.268686
-125.81035
-0.0001441643
-5.2325518e-05
-1.850094e-05
-4.4055461e-06
4.4199945e-06
1.6508922e-05
3.7541146e-05
7.3654108e-05
0.00013551549
0.00024160569
0.00042391107
0.00073778938
0.0012790595
0.0022136021
0.0038286294
0.0066214843
0.011453442
0.019816101
0.034292774
0.059357639
0.10275989
0.17792116
0.30808793
0.53352378
-0.00076810038
-0.0023659783
-0.0044850252
-0.0072767395
-0.010930281
-0.015684313
-0.021852381
-0.029880159
-0.040471419
-0.054854438
-0.075328561
-0.10636864
-0.15687329
-0.24583572
-0.46190138
-0.84315523
-1.3427783
-1.9898368
-2.8704697
-4.1025045
-5.8590908
-8.3984225
-12.102104
-17.527241
-25.459323
-36.893947
-52.85594
-73.884367
-98.768482
-6.1179163e-05
-2.0047771e-05
-4.5472783e-06
4.5125901e-06
1.6939332e-05
3.8606359e-05
7.5651029e-05
0.00013876089
0.00024645292
0.00043076507
0.00074712134
0.0012914219
0.0022296452
0.0038491191
0.0066473227
0.011485692
0.019856011
0.034341813
0.059417531
0.10283266
0.17800919
0.30819399
0.53365109
0.9241188
-0.00068627951
-0.0022223149
-0.0042427634
-0.0068757119
-0.010271448
-0.014602493
-0.020068312
-0.026915036
-0.03549237
-0.046390638
-0.060740857
-0.080840098
-0.11142351
-0.16228755
-0.25780076
-0.47314535
-0.83228535
-1.320473
-1.9420228
-2.7763591
-3.9268198
-5.5407022
-7.8304834
-11.099835
-15.77739
-22.426583
-31.641034
-43.729661
-57.983636
-71.035099
-2.2358238e-05
-4.7642777e-06
4.6543223e-06
1.7598418e-05
4.0237614e-05
7.8708892e-05
0.00014372993
0.00025387342
0.00044125613
0.00076140332
0.0013103396
0.0022541927
0.0038804677
0.0066868525
0.011535027
0.019917064
0.03441683
0.05950915
0.10294398
0.17814383
0.30835623
0.53384593
0.92435206
1.6006647
-0.00065075158
-0.0021533807
-0.004120577
-0.006667095
-0.0099213661
-0.014018768
-0.019094662
-0.025283022
-0.032734509
-0.041680801
-0.052595964
-0.066552587
-0.085960512
-0.11605679
-0.16817252
-0.27766464
-0.48432139
-0.82026683
-1.2932335
-1.8862967
-2.669369
-3.7304586
-5.1893127
-7.2102786
-10.017565
-13.912126
-19.234054
-26.169256
-34.306387
-41.690971
-42.815383
-5.0849363e-06
4.8713217e-06
1.8607984e-05
4.2736457e-05
8.3392796e-05
0.00015134035
0.00026523657
0.00045731842
0.00078326578
0.0013392935
0.0022917581
0.0039284356
0.0067473333
0.011610506
0.020010464
0.034531587
0.0596493
0.10311426
0.17834979
0.3086044
0.53414398
0.92470906
1.6010911
2.7725044
-0.0006397665
-0.0021233954
-0.004061494
-0.0065608999
-0.0097375972
-0.013706062
-0.018565627
-0.024387242
-0.031209739
-0.039063313
-0.048052972
-0.058563015
-0.071695437
-0.090150239
-0.11997446
-0.17506729
-0.29905853
-0.49639361
-0.80943885
-1.2605078
-1.822318
-2.5491202
-3.5129542
-4.8044474
-6.5379824
-8.8588111
-11.94341
-15.907366
-20.523721
-24.659728
-25.124051
-14.304387
5.1920031e-06
2.0154815e-05
4.6565276e-05
9.0569317e-05
0.00016299963
0.00028264247
0.00048191781
0.0008167414
0.0013836188
0.0023492562
0.0040018447
0.0068398803
0.011725992
0.020153359
0.034707149
0.0598637
0.10337474
0.17866486
0.30898401
0.5345999
0.92525516
1.6017438
2.7732829
4.8022419
-0.002114884
-0.0040359158
-0.0065092145
-0.009643211
-0.013540483
-0.018280061
-0.023897478
-0.030368765
-0.037611049
-0.045522298
-0.054100679
-0.063713783
-0.075636508
-0.093079783
-0.12325728
-0.18556271
-0.31611793
-0.50793638
-0.79960101
-1.2214955
-1.7495633
-2.4151671
-3.2738554
-4.3857989
-5.8144987
-7.6293144
-9.886783
-12.474901
-14.748929
-14.857768
-8.3930638
14.304358
0.00063981955
2.2465389e-05
5.2432562e-05
0.00010156659
0.00018086551
0.00030931166
0.00051960314
0.00086801473
0.0014514954
0.0024372856
0.0041142116
0.0069815179
0.011902711
0.020371999
0.034975747
0.060191701
0.10377323
0.17914682
0.30956472
0.5352973
0.92609048
1.6027422
2.7744743
4.803662
8.3179495
-0.0040290983
-0.0064868672
-0.0095969453
-0.01345469
-0.018127591
-0.023631258
-0.02990647
-0.036806951
-0.044114676
-0.051611624
-0.059254164
-0.067518246
-0.0780283
-0.094727326
-0.12666457
-0.20168574
-0.33065257
-0.51717168
-0.78913087
-1.1759357
-1.6670841
-2.2668459
-3.0126107
-3.933137
-5.0415119
-6.337042
-7.7600019
-8.964422
-8.8849503
-4.9630063
8.3930461
42.815354
0.002114884
0.00065080519
6.1286486e-05
0.00011841785
0.00020824295
0.00035017952
0.00057734856
0.00094657065
0.001555469
0.0025720988
0.004286257
0.0071983338
0.01217318
0.020706578
0.035386731
0.060693533
0.10438286
0.17988414
0.31045305
0.53636414
0.92736825
1.6042694
2.7762968
4.8058352
8.3205413
14.407536
-0.0064811833
-0.0095768676
-0.013412217
-0.018047806
-0.023487942
-0.029653587
-0.036362943
-0.043333077
-0.05022515
-0.056765858
-0.062984819
-0.069619247
-0.078803859
-0.095407574
-0.1312349
-0.21615136
-0.34234661
-0.52248955
-0.77643965
-1.1254634
-1.5731977
-2.1028991
-2.7282351
-3.445972
-4.2212351
-4.9914544
-5.5806236
-5.400267
-2.9676589
4.9629959
25.124034
71.035071
0.0040290983
0.0021233954
0.00068633385
0.00014427173
0.00025018917
0.00041280223
0.00066583886
0.0010669488
0.0017147791
0.0027786236
0.0045497583
0.0075303245
0.012587232
0.021218674
0.036015671
0.061461405
0.1053156
0.18101216
0.31181204
0.53799615
0.92932291
1.6066056
2.7790846
4.8091596
8.3245075
14.412276
24.955454
-0.0095717674
-0.013393529
-0.018007778
-0.023412164
-0.029516378
-0.036118724
-0.04290001
-0.049453978
-0.055379338
-0.060457154
-0.064930341
-0.06992678
-0.078196011
-0.095756477
-0.14031425
-0.22747787
-0.35049629
-0.52245212
-0.75858025
-1.0708849
-1.4659084
-1.9207761
-2.4185168
-2.9226938
-3.3556085
-3.6020573
-3.3640062
-1.8037718
2.9676528
14.857758
41.690954
98.768457
0.0064811833
0.0040359158
0.0021533807
0.00076815583
0.0003165058
0.00050874166
0.00080143163
0.0012514236
0.0019589198
0.0030950918
0.0049534625
0.0080388408
0.013221284
0.022002677
0.036978358
0.062636553
0.10674287
0.18273807
0.31389122
0.5404929
0.93231321
1.6101793
2.7833493
4.8142452
8.3305747
14.419532
24.964165
43.226044
-0.013388409
-0.017989836
-0.023373576
-0.029443008
-0.035985223
-0.042660744
-0.049025749
-0.054607784
-0.059049867
-0.062320542
-0.064988625
-0.068634554
-0.076678527
-0.097026031
-0.15109028
-0.23604452
-0.35431377
-0.51576996
-0.73172985
-1.0086776
-1.3442104
-1.7161414
-2.0787025
-2.3591253
-2.445399
-2.1777264
-1.1240669
1.8037682
8.8849444
24.659718
57.98362
125.81033
0.0095717674
0.0064868672
0.004061494
0.0022223149
0.00094172983
0.00066704774
0.0010091942
0.0015341354
0.0023331145
0.0035801544
0.0055721817
0.008818053
0.014192618
0.023203404
0.038452369
0.064435465
0.10892733
0.18537924
0.31707264
0.54431302
0.93688825
1.6156469
2.7898738
4.8220256
8.3398573
14.430633
24.977511
43.242198
74.874379
-0.017984228
-0.023355511
-0.029404897
-0.035913019
-0.042529104
-0.048788415
-0.054179014
-0.058267444
-0.060870431
-0.06224758
-0.063333249
-0.066155289
-0.074877375
-0.10058057
-0.15921882
-0.24132181
-0.35296744
-0.50123725
-0.69336447
-0.93224442
-1.2054443
-1.483591
-1.7006802
-1.7478367
-1.4916153
-0.72895384
1.1240648
5.4002634
14.748924
34.306378
73.88435
151.94731
0.013388409
0.0095768676
0.0065092145
0.004120577
0.0023659783
0.0012991794
0.0013547005
0.0019677944
0.0029070726
0.0043241226
0.0065210495
0.010012843
0.015681618
0.025043493
0.040710539
0.067190561
0.11227205
0.18942241
0.3219421
0.55015939
0.9438894
1.6240137
2.7998578
4.8339316
8.3540616
14.447618
24.997928
43.266987
74.904772
129.69836
-0.023349196
-0.029386424
-0.035874807
-0.042457188
-0.048657207
-0.053941057
-0.057833009
-0.060066025
-0.060729302
-0.060401325
-0.06034697
-0.063015743
-0.073649218
-0.10716854
-0.1647628
-0.24269504
-0.34562282
-0.47775221
-0.64192269
-0.83617119
-1.0422892
-1.2166298
-1.2747284
-1.0821187
-0.50204139
0.72895266
3.3640041
8.9644186
20.523715
43.729651
89.268673
176.9717
0.017984228
0.013393529
0.0095969453
0.0065608999
0.0042427634
0.0026536446
0.0020110025
0.0026446712
0.0037922626
0.0054696165
0.0079804556
0.01184902
0.017968444
0.027867871
0.044174752
0.071415017
0.1173984
0.1956171
0.32940076
0.55911268
0.95460987
1.6368244
2.8151447
4.8521621
8.3758105
14.47362
25.029174
43.304903
74.951567
129.75687
224.67676
-0.029378914
-0.035855454
-0.042418364
-0.048584907
-0.053809153
-0.057592079
-0.059620543
-0.059890123
-0.058784042
-0.057149117
-0.05651359
-0.059765147
-0.073937134
-0.11257018
-0.16738213
-0.23954383
-0.33150175
-0.4444073
-0.5764694
-0.71939018
-0.84894155
-0.9090172
-0.79532202
-0.36755165
0.50204078
2.1777251
5.5806215
12.474898
26.16925
52.855932
104.01396
200.69782
0.023349196
0.017989836
0.013412217
0.009643211
0.006667095
0.0044850252
0.003217397
0.0033581977
0.0050292446
0.007263189
0.010279522
0.014717651
0.021516969
0.032233818
0.049517213
0.077919309
0.12528182
0.20513478
0.34085273
0.57285293
0.97105714
1.6564764
2.8386007
4.8801615
8.4092505
14.513645
25.077341
43.363452
75.023947
129.84872
224.79539
389.23981
-0.035846547
-0.042397911
-0.048545278
-0.05373611
-0.05745858
-0.05937424
-0.059427375
-0.057894437
-0.055393972
-0.052953529
-0.052318914
-0.056954574
-0.076850516
-0.11561634
-0.16660931
-0.23128939
-0.30996215
-0.40061676
-0.49675842
-0.58323969
-0.62752611
-0.56270513
-0.27103531
0.36755141
1.4916147
3.6020561
7.7599997
15.907362
31.641028
61.611683
118.00973
222.97439
0.029378914
0.023355511
0.018007778
0.01345469
0.0097375972
0.0068757119
0.0049551542
0.0043076495
0.0058616555
0.0093856127
0.013628845
0.01923246
0.027314524
0.039520408
0.058571435
0.089099456
0.1390355
0.22197562
0.36128862
0.5974345
1.0009875
1.6953142
2.8893328
4.9435765
8.4846733
14.600774
25.175845
43.472708
75.142081
129.97081
224.91016
389.32026
-0.042387672
-0.048523733
-0.053695666
-0.057384618
-0.059238274
-0.059172889
-0.057406701
-0.054434095
-0.051010807
-0.048271986
-0.048191133
-0.055314932
-0.079864656
-0.11612047
-0.16200296
-0.21745499
-0.28059605
-0.34626021
-0.40338114
-0.43017905
-0.38509859
-0.19048424
0.27103524
1.0821184
2.4453984
4.9914533
9.8867812
19.234051
36.893942
69.930191
131.16541
243.6917
0.035846547
0.029386424
0.023373576
0.018047806
0.013540483
0.0099213661
0.0072767395
0.0058556873
0.0064019445
0.010473036
0.016982209
0.024952664
0.03554065
0.050483179
0.072528669
0.10623954
0.15933477
0.24503301
0.38621804
0.62271165
1.0219844
1.6979182
2.8659207
4.8916971
8.3930241
14.456756
24.974242
43.207508
74.797073
129.51298
224.28428
388.43747
-0.048512249
-0.053673253
-0.057343568
-0.059163313
-0.059033409
-0.057140426
-0.053911446
-0.049955205
-0.046078024
-0.043494393
-0.044487933
-0.055465135
-0.080993953
-0.11375016
-0.15319942
-0.19773985
-0.24333706
-0.28181793
-0.2978942
-0.26382055
-0.12981419
0.19048424
0.79532192
1.7478364
3.3556079
6.3370408
11.943409
22.42658
41.886923
77.756482
143.41453
262.78401
0.042387672
0.035855454
0.029404897
0.023412164
0.018127591
0.013706062
0.010271448
0.0080379849
0.0075666156
0.010417428
0.018452516
0.029387454
0.043491019
0.062748102
0.090301472
0.13132935
0.19448079
0.29428215
0.45517673
0.71812066
1.1489511
1.8693172
3.1256181
5.269738
8.879796
15.004545
25.520107
43.715534
75.284714
130.04268
224.95254
389.38639
-0.05366074
-0.057320673
-0.059122011
-0.058957319
-0.056995944
-0.053628576
-0.049384784
-0.044894203
-0.040968375
-0.038920812
-0.041635238
-0.056477713
-0.079962661
-0.10822383
-0.13996942
-0.17209968
-0.19856074
-0.20846552
-0.18284533
-0.088922653
0.12981419
0.56270512
1.2747283
2.3591249
4.2212345
7.6293135
13.912124
25.459321
46.586208
85.049939
154.7162
280.22858
0.048512249
0.042397911
0.035874807
0.029443008
0.023487942
0.018280061
0.014018768
0.010930281
0.0094713243
0.010807369
0.017911734
0.031398014
0.048944612
0.07234853
0.1049002
0.15201615
0.22271393
0.33211309
0.50579984
0.78715908
1.245567
2.0134796
3.3393132
5.5929262
9.4217453
15.929533
27.005537
45.847941
78.014667
133.3314
228.93706
394.43824
-0.05730778
-0.059099224
-0.058916106
-0.056918336
-0.053476919
-0.049078956
-0.044259568
-0.039615575
-0.035961552
-0.034766769
-0.040019051
-0.056216007
-0.076560293
-0.099363392
-0.12227889
-0.14082136
-0.14715435
-0.12809213
-0.061654789
0.088922653
0.38509859
0.90901716
1.70068
2.9226935
5.0415113
8.8588103
15.777389
28.311592
50.966921
91.785065
165.05438
296.04191
0.05366074
0.048523733
0.042418364
0.035913019
0.029516378
0.023631258
0.018565627
0.014602493
0.012160635
0.012156984
0.016994705
0.030989297
0.051723636
0.079193663
0.11674864
0.16995938
0.24809215
0.3665923
0.55140341
0.84603293
1.3187234
2.1061436
3.45127
5.7314421
9.6023004
16.189837
27.447788
46.731458
79.770557
136.36548
233.48834
400.80717
-0.059086602
-0.058894056
-0.056877414
-0.053396968
-0.04891706