/*--------------------------------*- C++ -*----------------------------------*\
| =========                 |                                                 |
| \\      /  F ield         | OpenFOAM: The Open Source CFD Toolbox           |
|  \\    /   O peration     | Version:  2212                                  |
|   \\  /    A nd           | Website:  www.openfoam.com                      |
|    \\/     M anipulation  |                                                 |
\*---------------------------------------------------------------------------*/
FoamFile
{
    version     2.0;
    format      ascii;
    arch        "LSB;label=32;scalar=64";
    class       volScalarField;
    location    "15000";
    object      k;
}
// * * * * * * * * * * * * * * * * * * * * * * * * * * * * * * * * * * * * * //

dimensions      [0 2 -2 0 0 0 0];

internalField   nonuniform List<scalar> 
3584
(
7.031823e-06
6.7737053e-06
4.0410422e-07
5.8300873e-06
3.8319026e-07
1.0819442e-07
5.051463e-06
3.2199913e-07
1.0289778e-07
6.0397954e-08
5.1598183e-06
2.8229085e-07
1.0262076e-07
6.2865388e-08
4.6588192e-08
5.6904779e-06
3.2706704e-07
1.214877e-07
7.584263e-08
5.3000048e-08
4.1224377e-08
6.1495363e-06
3.7500485e-07
1.4317449e-07
9.365611e-08
6.7689959e-08
4.9833777e-08
3.8977168e-08
6.4215509e-06
3.9643836e-07
1.6008499e-07
1.0981618e-07
8.305134e-08
6.4720883e-08
4.8343732e-08
3.7641226e-08
6.634342e-06
4.1114002e-07
1.6890032e-07
1.2347581e-07
9.7577967e-08
7.9441575e-08
6.3218339e-08
4.7767415e-08
3.7087162e-08
6.8368277e-06
4.2277387e-07
1.7291035e-07
1.3173882e-07
1.1028589e-07
9.355218e-08
7.7378193e-08
6.2514681e-08
4.7397076e-08
3.6702126e-08
7.0353561e-06
4.3543666e-07
1.7571594e-07
1.3523831e-07
1.194651e-07
1.0561034e-07
9.1019007e-08
7.6421543e-08
6.2040542e-08
4.7238102e-08
3.6517595e-08
7.2321895e-06
4.4725375e-07
1.7844161e-07
1.3685135e-07
1.2428893e-07
1.1506232e-07
1.0247696e-07
8.985983e-08
7.5793732e-08
6.1828622e-08
4.7125738e-08
3.64116e-08
7.4273301e-06
4.6037131e-07
1.8119091e-07
1.3810446e-07
1.2597997e-07
1.2148017e-07
1.1184436e-07
1.0143113e-07
8.9233548e-08
7.5511843e-08
6.1674623e-08
4.707344e-08
3.6341086e-08
7.6213058e-06
4.7278515e-07
1.8407086e-07
1.3942123e-07
1.2686243e-07
1.2426139e-07
1.1878571e-07
1.1079753e-07
1.0070512e-07
8.892317e-08
7.5338126e-08
6.1599767e-08
4.7035162e-08
3.6310233e-08
7.8143474e-06
4.8644436e-07
1.8700453e-07
1.4071483e-07
1.2759874e-07
1.2522637e-07
1.2317063e-07
1.1769179e-07
1.0997661e-07
1.0040973e-07
8.8711291e-08
7.521911e-08
6.1559246e-08
4.7016828e-08
3.6286907e-08
8.0068083e-06
4.9950366e-07
1.9008387e-07
1.421127e-07
1.2842189e-07
1.2576247e-07
1.2485529e-07
1.2258067e-07
1.1658907e-07
1.0948353e-07
1.0016607e-07
8.8625384e-08
7.5175566e-08
6.15298e-08
4.7005711e-08
3.6273837e-08
8.1989655e-06
5.1375492e-07
1.9322298e-07
1.4349361e-07
1.2919654e-07
1.2628552e-07
1.2539813e-07
1.2553283e-07
1.2160924e-07
1.1628666e-07
1.0927936e-07
1.0007199e-07
8.8561705e-08
7.5132147e-08
6.1517209e-08
4.6996358e-08
3.6266667e-08
8.3911963e-06
5.2751743e-07
1.9652261e-07
1.4498459e-07
1.3006919e-07
1.2682372e-07
1.2575945e-07
1.2651824e-07
1.251276e-07
1.2170604e-07
1.1630972e-07
1.0917523e-07
9.9996318e-08
8.8537903e-08
7.5116077e-08
6.1508521e-08
4.6993337e-08
3.6260788e-08
8.5837669e-06
5.4242349e-07
1.99889e-07
1.4646268e-07
1.308942e-07
1.2737597e-07
1.2611836e-07
1.2687129e-07
1.2715235e-07
1.2559587e-07
1.2201357e-07
1.1637242e-07
1.0913757e-07
9.9959662e-08
8.8517707e-08
7.5103528e-08
6.1504697e-08
4.6990731e-08
3.6257065e-08
8.7769901e-06
5.5696135e-07
2.0343288e-07
1.4805668e-07
1.3182146e-07
1.2794576e-07
1.2649189e-07
1.2710416e-07
1.2777402e-07
1.2873026e-07
1.267847e-07
1.2247581e-07
1.1646634e-07
1.0911838e-07
9.9933938e-08
8.8505658e-08
7.5098726e-08
6.1503916e-08
4.6990065e-08
3.6254727e-08
8.971243e-06
5.7260034e-07
2.0705193e-07
1.4964297e-07
1.3270216e-07
1.2853086e-07
1.2686986e-07
1.2737847e-07
1.2789794e-07
1.3072847e-07
1.3170195e-07
1.2849589e-07
1.2309362e-07
1.1654238e-07
1.0911116e-07
9.9919505e-08
8.8501647e-08
7.5094456e-08
6.1504023e-08
4.6989152e-08
3.6253419e-08
9.1668662e-06
5.8800149e-07
2.1086773e-07
1.5135131e-07
1.336895e-07
1.2913394e-07
1.2726397e-07
1.2762379e-07
1.2809504e-07
1.3106433e-07
1.3610119e-07
1.3603515e-07
1.3065397e-07
1.2349216e-07
1.1661724e-07
1.0911013e-07
9.9912024e-08
8.8496275e-08
7.5089444e-08
6.1504049e-08
4.698969e-08
3.6252943e-08
9.3641999e-06
6.0446978e-07
2.1476863e-07
1.5305811e-07
1.3463148e-07
1.2975462e-07
1.2766474e-07
1.2791689e-07
1.2819517e-07
1.3089417e-07
1.3877266e-07
1.4471535e-07
1.4161831e-07
1.3235745e-07
1.2390444e-07
1.166551e-07
1.091103e-07
9.9908802e-08
8.8494166e-08
7.5086433e-08
6.1503781e-08
4.6990606e-08
3.6252824e-08
9.5636325e-06
6.208386e-07
2.1888818e-07
1.5489375e-07
1.3568521e-07
1.3039436e-07
1.2808321e-07
1.2817745e-07
1.2840769e-07
1.3089459e-07
1.389699e-07
1.5318485e-07
1.6101059e-07
1.4903498e-07
1.3431865e-07
1.241816e-07
1.1668292e-07
1.0911005e-07
9.9907033e-08
8.849171e-08
7.5082797e-08
6.1502854e-08
4.6992145e-08
3.6252762e-08
9.7655898e-06
6.3825125e-07
2.231044e-07
1.5673474e-07
1.366944e-07
1.3105399e-07
1.2850986e-07
1.2848778e-07
1.2852186e-07
1.308505e-07
1.3740295e-07
1.5832245e-07
1.9577175e-07
1.8948923e-07
1.5755496e-07
1.3551732e-07
1.2430336e-07
1.1669353e-07
1.0910925e-07
9.9903591e-08
8.8491578e-08
7.508042e-08
6.1500335e-08
4.699398e-08
3.6252656e-08
6.5571223e-07
9.970437e-06
2.2756395e-07
1.5871228e-07
1.3782152e-07
1.317343e-07
1.2895464e-07
1.2876191e-07
1.2875199e-07
1.308352e-07
1.3715568e-07
1.5990463e-07
2.4617709e-07
2.9904547e-07
2.2849254e-07
1.6502915e-07
1.3641973e-07
1.2442023e-07
1.1670579e-07
1.091084e-07
9.9901194e-08
8.8493272e-08
7.5079323e-08
6.1497817e-08
4.6994839e-08
3.6252512e-08
2.3213334e-07
6.7420399e-07
1.0178647e-05
1.6070261e-07
1.3890432e-07
1.3243663e-07
1.294083e-07
1.2908985e-07
1.2888155e-07
1.308301e-07
1.3660611e-07
1.4738513e-07
2.7733731e-07
5.445996e-07
4.8546666e-07
2.7566611e-07
1.7083238e-07
1.371896e-07
1.2450922e-07
1.167122e-07
1.0910802e-07
9.9897519e-08
8.8495752e-08
7.5078986e-08
6.1495644e-08
4.6995979e-08
3.6252287e-08
1.6283822e-07
2.3697336e-07
6.9289901e-07
1.0390643e-05
1.4011236e-07
1.3316145e-07
1.2988039e-07
1.293789e-07
1.2912926e-07
1.3084598e-07
1.3639113e-07
1.4585313e-07
2.7926925e-07
9.0660105e-07
1.2660912e-06
7.5323849e-07
3.2428886e-07
1.7741799e-07
1.3769295e-07
1.245508e-07
1.1671944e-07
1.0910828e-07
9.9893211e-08
8.8497192e-08
7.5078955e-08
6.149439e-08
4.699607e-08
3.6252085e-08
1.4127573e-07
1.6499437e-07
2.4193794e-07
7.1262233e-07
1.0606897e-05
1.3391018e-07
1.3036227e-07
1.2972707e-07
1.2927375e-07
1.3087669e-07
1.3600832e-07
1.438707e-07
1.9206161e-07
1.0925605e-06
3.0179818e-06
2.5502236e-06
1.0527111e-06
3.7317882e-07
1.7997358e-07
1.3785635e-07
1.2456811e-07
1.1672062e-07
1.0910904e-07
9.989053e-08
8.849761e-08
7.5079584e-08
6.1493808e-08
4.6996207e-08
3.6251942e-08
1.3468331e-07
1.4257252e-07
1.6730545e-07
2.4720247e-07
7.3270747e-07
1.0827835e-05
1.308635e-07
1.300332e-07
1.2953851e-07
1.3091819e-07
1.3584871e-07
1.4330174e-07
1.6025719e-07
1.0572662e-06
5.4220274e-06
8.0026594e-06
4.2605833e-06
1.4147829e-06
3.9248392e-07
1.8162353e-07
1.3800004e-07
1.245721e-07
1.1672072e-07
1.0910921e-07
9.9888923e-08
8.8497701e-08
7.5081166e-08
6.1493572e-08
4.6996297e-08
3.6251889e-08
1.3137562e-07
1.3548252e-07
1.4382386e-07
1.6964493e-07
2.5260711e-07
7.5382623e-07
1.1053906e-05
1.304032e-07
1.2969705e-07
1.3097829e-07
1.3553617e-07
1.4254271e-07
1.555033e-07
3.9328147e-07
6.2727786e-06
1.9818646e-05
1.6333934e-05
6.4307884e-06
1.5912325e-06
4.1332169e-07
1.830771e-07
1.3807903e-07
1.2457515e-07
1.167201e-07
1.0911014e-07
9.9888392e-08
8.8496878e-08
7.5082225e-08
6.1493497e-08
4.6996374e-08
3.625188e-08
1.3072697e-07
1.3190814e-07
1.3630759e-07
1.4521723e-07
1.7214939e-07
2.5834171e-07
7.7546228e-07
1.1285503e-05
1.2997976e-07
1.3104588e-07
1.3540751e-07
1.4208164e-07
1.5243204e-07
2.0447319e-07
5.2835772e-06
3.3558853e-05
5.08864e-05
2.7233231e-05
7.9573292e-06
1.785432e-06
4.2750876e-07
1.8429927e-07
1.3811492e-07
1.2457667e-07
1.1671858e-07
1.0911036e-07
9.9888229e-08
8.8494919e-08
7.508374e-08
6.1493485e-08
4.6996543e-08
3.6251885e-08
1.3015254e-07
1.3111909e-07
1.3245246e-07
1.3716145e-07
1.4656403e-07
1.7468981e-07
2.6423135e-07
7.9813637e-07
1.1522979e-05
1.3113425e-07
1.3516113e-07
1.4144545e-07
1.5164619e-07
1.7526713e-07
1.3012796e-06
3.4996174e-05
0.00011734406
9.9784494e-05
3.8854276e-05
9.8851099e-06
1.9345167e-06
4.357725e-07
1.8470722e-07
1.3814864e-07
1.2458021e-07
1.1671659e-07
1.0911061e-07
9.9888195e-08
8.8493571e-08
7.5083926e-08
6.1493482e-08
4.6996584e-08
3.6251957e-08
1.3122792e-07
1.3045471e-07
1.3146114e-07
1.330181e-07
1.3804168e-07
1.4806123e-07
1.7740467e-07
2.7047886e-07
8.2146652e-07
1.1766586e-05
1.3505597e-07
1.4109043e-07
1.5056779e-07
1.6570512e-07
3.3486269e-07
2.3246457e-05
0.00017541542
0.00028436251
0.00016367271
5.2022331e-05
1.0876733e-05
1.9846023e-06
4.4091126e-07
1.8510592e-07
1.3818272e-07
1.2458817e-07
1.1671609e-07
1.0911115e-07
9.9888195e-08
8.8492746e-08
7.5084094e-08
6.1493488e-08
4.6996603e-08
3.6252144e-08
1.3486904e-07
1.3134316e-07
1.3064116e-07
1.318765e-07
1.3359621e-07
1.3895403e-07
1.4951023e-07
1.8016183e-07
2.7689257e-07
8.4582455e-07
1.2016441e-05
1.4055739e-07
1.4976455e-07
1.6527515e-07
2.0648472e-07
4.2948984e-06
0.00017596336
0.00059007276
0.00053346738
0.00022551511
5.902749e-05
1.1403332e-05
2.0231993e-06
4.4236382e-07
1.8517815e-07
1.3818157e-07
1.2459318e-07
1.1671584e-07
1.0911155e-07
9.9888218e-08
8.8492328e-08
7.5084365e-08
6.1493529e-08
4.6996582e-08
3.6252429e-08
1.4028368e-07
1.3478929e-07
1.3146193e-07
1.3096182e-07
1.3223735e-07
1.3419611e-07
1.3989162e-07
1.5111674e-07
1.831005e-07
2.8368457e-07
8.7093364e-07
1.2272502e-05
1.490366e-07
1.631571e-07
1.8974907e-07
6.8025793e-07
7.9940456e-05
0.00078575058
0.0013799839
0.00084831568
0.00028246979
6.3211525e-05
1.1748937e-05
2.0532302e-06
4.4326211e-07
1.8506933e-07
1.3816211e-07
1.2459463e-07
1.1671565e-07
1.0911132e-07
9.9888295e-08
8.8492164e-08
7.5084644e-08
6.1493608e-08
4.6996452e-08
3.6252777e-08
1.4841932e-07
1.398239e-07
1.3465632e-07
1.3160226e-07
1.3115986e-07
1.3267532e-07
1.3480868e-07
1.4086512e-07
1.5267226e-07
1.8608466e-07
2.9064455e-07
8.9701818e-07
1.2534451e-05
1.6225773e-07
1.8659548e-07
3.1526428e-07
1.2752189e-05
0.00075974553
0.0025926215
0.0025491064
0.0011416032
0.00032139269
6.7316844e-05
1.1993431e-05
2.0673008e-06
4.4394585e-07
1.8488908e-07
1.3813685e-07
1.2459524e-07
1.1671564e-07
1.0911094e-07
9.9888348e-08
8.8492096e-08
7.5084909e-08
6.149371e-08
4.6996218e-08
3.6253153e-08
1.6104672e-07
1.4780491e-07
1.3962161e-07
1.3460262e-07
1.3174493e-07
1.3149645e-07
1.3305486e-07
1.3544252e-07
1.4186005e-07
1.5438971e-07
1.8925201e-07
2.9798651e-07
9.2386531e-07
1.2801692e-05
1.8294591e-07
2.0775504e-07
2.151892e-06
0.0002523082
0.0031761927
0.0061090738
0.0039809544
0.0014570422
0.00035681949
6.9932104e-05
1.2174994e-05
2.0791952e-06
4.4377605e-07
1.84743e-07
1.3811135e-07
1.2459354e-07
1.1671561e-07
1.0911046e-07
9.9888334e-08
8.8492074e-08
7.5085201e-08
6.1493817e-08
4.6995895e-08
3.6253563e-08
1.8233048e-07
1.6045924e-07
1.4731506e-07
1.3922678e-07
1.3451808e-07
1.3191229e-07
1.3170265e-07
1.3351347e-07
1.3608847e-07
1.4289491e-07
1.5605087e-07
1.9246144e-07
3.0547913e-07
9.5154879e-07
1.3073219e-05
2.1386882e-07
1.248216e-07
4.2935651e-05
0.0029930905
0.010913158
0.011684685
0.0056043122
0.0016636844
0.00037582563
7.1257876e-05
1.2265902e-05
2.0879009e-06
4.4313486e-07
1.846641e-07
1.3809067e-07
1.2459152e-07
1.1671561e-07
1.0911036e-07
9.9888149e-08
8.8492092e-08
7.5085538e-08
6.1493912e-08
4.6995508e-08
3.6253784e-08
2.1019473e-07
1.8099001e-07
1.5970657e-07
1.4673242e-07
1.3906688e-07
1.3448867e-07
1.3206777e-07
1.320553e-07
1.3390991e-07
1.367535e-07
1.4394319e-07
1.5787347e-07
1.958455e-07
3.1332646e-07
9.7986424e-07
1.3347591e-05
2.8101395e-07
9.8625015e-06
0.00086883521
0.01306564
0.028041711
0.018970526
0.0069695354
0.0018060343
0.00038354371
7.1896595e-05
1.2319074e-05
2.0841671e-06
4.431209e-07
1.8453854e-07
1.380771e-07
1.2458897e-07
1.1671574e-07
1.0911029e-07
9.9887807e-08
8.8492181e-08
7.5085908e-08
6.1494011e-08
4.6995071e-08
3.6253892e-08
2.4927086e-07
2.1038892e-07
1.8104947e-07
1.5912598e-07
1.4635947e-07
1.3874923e-07
1.3446341e-07
1.3224525e-07
1.3226899e-07
1.3438531e-07
1.3742887e-07
1.4503516e-07
1.5962993e-07
1.9925659e-07
3.2127386e-07
1.0087288e-06
1.362286e-05
1.257732e-06
2.656916e-05
0.012182243
0.050934431
0.058629268
0.027287514
0.0081005743
0.0018791685
0.00038768309
7.2193596e-05
1.2370009e-05
2.0817397e-06
4.4245586e-07
1.8447657e-07
1.3806492e-07
1.2458852e-07
1.1671596e-07
1.0911022e-07
9.9887373e-08
8.8492305e-08
7.5086281e-08
6.1494057e-08
4.699461e-08
3.6253964e-08
8.9120688e-07
2.556998e-07
2.1041997e-07
1.8094342e-07
1.5872168e-07
1.4582434e-07
1.3862462e-07
1.3446465e-07
1.3240269e-07
1.3263753e-07
1.3479522e-07
1.3811882e-07
1.4612652e-07
1.6153952e-07
2.0281688e-07
3.2949951e-07
1.0378915e-06
1.3896533e-05
2.2412018e-05
0.0015457243
0.058476043
0.14985379
0.097688521
0.034711292
0.0087966532
0.0019288336
0.00039072987
7.2626329e-05
1.2377981e-05
2.0727568e-06
4.4167362e-07
1.8435398e-07
1.3806281e-07
1.2458819e-07
1.1671621e-07
1.0911016e-07
9.988691e-08
8.8492516e-08
7.5086687e-08
6.1494031e-08
4.6994113e-08
3.6253798e-08
2.0545177e-05
1.8174905e-07
2.5253071e-07
2.1195943e-07
1.8130507e-07
1.5816101e-07
1.4555517e-07
1.3839034e-07
1.3448238e-07
1.3258744e-07
1.3285603e-07
1.3528124e-07
1.388156e-07
1.4726458e-07
1.633662e-07
2.0637132e-07
3.3772531e-07
1.0671083e-06
1.4165625e-05
0.00013531992
0.046977145
0.27313735
0.30521284
0.13978736
0.04033468
0.0092640166
0.0019579896
0.00039294068
7.2700656e-05
1.2377967e-05
2.0687492e-06
4.4034367e-07
1.8430352e-07
1.3805973e-07
1.2458792e-07
1.1671644e-07
1.091101e-07
9.9886481e-08
8.8492774e-08
7.508713e-08
6.1494042e-08
4.6993623e-08
3.6253795e-08
0.00032938339
1.907873e-05
3.790971e-07
2.5864148e-07
2.1411404e-07
1.8233877e-07
1.5786586e-07
1.4506195e-07
1.3830456e-07
1.345164e-07
1.327411e-07
1.3323713e-07
1.356994e-07
1.3951976e-07
1.4838001e-07
1.6532655e-07
2.1002542e-07
3.4608575e-07
1.0960403e-06
1.4426645e-05
0.011517244
0.2800218
0.76297223
0.48139591
0.17654354
0.044005077
0.0094986985
0.0019742493
0.00039435699
7.2750776e-05
1.238361e-05
2.0627369e-06
4.3959636e-07
1.8427721e-07
1.3805702e-07
1.2458733e-07
1.1671665e-07
1.0911005e-07
9.9886115e-08
8.8492903e-08
7.5087166e-08
6.1493892e-08
4.6993049e-08
3.6253408e-08
0.0081381823
0.00034307652
1.9989344e-05
3.8047781e-07
2.6393995e-07
2.1737966e-07
1.8311491e-07
1.5723688e-07
1.4487901e-07
1.3813656e-07
1.3456175e-07
1.3293328e-07
1.334503e-07
1.3618684e-07
1.4022472e-07
1.4954437e-07
1.6717851e-07
2.1361776e-07
3.5428572e-07
1.1242995e-06
1.4675741e-05
0.16287941
1.219285
1.3896731
0.6756182
0.20533288
0.046341093
0.0096425557
0.0019916119
0.00039506593
7.279121e-05
1.2343293e-05
2.0617797e-06
4.3893382e-07
1.8424271e-07
1.3805549e-07
1.2458699e-07
1.1671686e-07
1.0910999e-07
9.9885802e-08
8.8492856e-08
7.5087149e-08
6.149379e-08
4.6992501e-08
3.6252948e-08
0.16704216
0.0015490476
0.0004355418
3.2658277e-05
4.016971e-07
2.6944469e-07
2.2136024e-07
1.8416989e-07
1.5690476e-07
1.4445847e-07
1.3808179e-07
1.3462331e-07
1.330858e-07
1.3384045e-07
1.3660644e-07
1.4092748e-07
1.5065422e-07
1.6913056e-07
2.1723082e-07
3.6240063e-07
1.151453e-06
1.4908821e-05
1.1945403
2.8810731
2.0794754
0.79272875
0.22114378
0.047537062
0.0097557831
0.0019962912
0.00039593081
7.260684e-05
1.23346e-05
2.061114e-06
4.3873262e-07
1.8423537e-07
1.3805673e-07
1.2458687e-07
1.1671709e-07
1.0910993e-07
9.9885525e-08
8.8492889e-08
7.5087054e-08
6.1493561e-08
4.6991668e-08
3.6251183e-08
1.0961958
0.22498576
0.002364658
0.00055689114
6.7824526e-05
4.5479007e-07
2.7391342e-07
2.2604739e-07
1.8478572e-07
1.5630077e-07
1.4430884e-07
1.3797166e-07
1.3468897e-07
1.3328529e-07
1.340401e-07
1.3708266e-07
1.4162117e-07
1.5181528e-07
1.7094016e-07
2.2070167e-07
3.7013652e-07
1.1770179e-06
1.5121692e-05
3.9176422
4.688898
2.6045088
0.89607198
0.22679535
0.048203795
0.0097735409
0.0019984123
0.00039605881
7.2574704e-05
1.2327499e-05
2.0600365e-06
4.3844229e-07
1.8423524e-07
1.3805967e-07
1.2458764e-07
1.1671749e-07
1.0910983e-07
9.9885204e-08
8.849256e-08
7.508685e-08
6.1493212e-08
4.6990853e-08
3.6249475e-08
3.8000105
1.8444334
0.41333501
0.0070797412
0.00064098853
0.00016973521
5.6363639e-07
3.0323302e-07
2.3221544e-07
1.8579307e-07
1.560413e-07
1.4396522e-07
1.3794401e-07
1.3477453e-07
1.3343259e-07
1.3443474e-07
1.3749582e-07
1.4230223e-07
1.5287854e-07
1.7280009e-07
2.240848e-07
3.7750023e-07
1.2005035e-06
1.5310257e-05
7.2136054
6.2091191
2.9870375
0.95553965
0.22815645
0.048391644
0.0097731761
0.0019984745
0.00039617697
7.2553034e-05
1.2322662e-05
2.0606591e-06
4.383312e-07
1.8421947e-07
1.3806843e-07
1.245885e-07
1.1671792e-07
1.0910967e-07
9.9884869e-08
8.849243e-08
7.5086397e-08
6.1492155e-08
4.6989108e-08
3.6244089e-08
7.9585991
6.5773158
2.9942433
0.75833028
0.027073545
0.00096690735
2.1235105e-05
4.5933453e-07
3.2678188e-07
2.4222421e-07
1.8688552e-07
1.5552081e-07
1.4384564e-07
1.3788364e-07
1.3485333e-07
1.3363984e-07
1.3461218e-07
1.3794406e-07
1.4295751e-07
1.5399714e-07
1.744785e-07
2.272254e-07
3.8423176e-07
1.2214122e-06
1.5470655e-05
9.7367657
6.9934751
3.1759133
0.97076718
0.22806725
0.048482569
0.0097583123
0.0019982542
0.00039601724
7.2549276e-05
1.2318336e-05
2.0600014e-06
4.3840585e-07
1.8422717e-07
1.3807943e-07
1.2459167e-07
1.1671892e-07
1.0910941e-07
9.9884222e-08
8.8492003e-08
7.5085558e-08
6.1490934e-08
4.6987296e-08
3.6238995e-08
10.8456
9.9530507
7.3617381
4.1581217
1.0960318
0.027916226
0.0098469541
6.3954479e-07
4.7612419e-07
3.4103022e-07
2.4928001e-07
1.880657e-07
1.5531945e-07
1.4356597e-07
1.3787921e-07
1.3496163e-07
1.3377656e-07
1.3499705e-07
1.3834171e-07
1.4359299e-07
1.5496216e-07
1.7614026e-07
2.3014712e-07
3.9026688e-07
1.2392657e-06
1.5599424e-05
10.596354
7.3348955
3.2587518
0.97271323
0.22745176
0.048345352
0.0097504854
0.0019979789
0.00039660545
7.2480171e-05
1.2326886e-05
2.0606263e-06
4.3859844e-07
1.8431641e-07
1.3810212e-07
1.2459457e-07
1.1671989e-07
1.0910913e-07
9.9883586e-08
8.8490487e-08
7.5083202e-08
6.1487526e-08
4.69826e-08
3.6223079e-08
12.963217
11.45877
10.12905
8.7963011
5.4517912
1.5365913
0.040322532
5.1465656e-05
8.1694962e-07
4.9785575e-07
3.4750163e-07
2.5372728e-07
1.8767382e-07
1.5492547e-07
1.434723e-07
1.3785741e-07
1.3504584e-07
1.3399321e-07
1.3516159e-07
1.3874303e-07
1.4417213e-07
1.5599045e-07
1.775855e-07
2.3271831e-07
3.9542496e-07
1.2536392e-06
1.5693585e-05
11.466673
7.4803126
3.290351
0.9704277
0.22632012
0.048283731
0.0097638152
0.0019994481
0.00039671378
7.2491854e-05
1.2322189e-05
2.0636901e-06
4.3902916e-07
1.8439738e-07
1.3813497e-07
1.2460442e-07
1.1672259e-07
1.0910873e-07
9.9881614e-08
8.8489042e-08
7.5079561e-08
6.1483644e-08
4.6977091e-08
3.6207589e-08
13.099799
12.308087
11.705257
10.592807
9.1815468
6.3954409
1.8333819
0.037161954
3.0800902e-05
8.0378625e-07
4.9841787e-07
3.4553309e-07
2.5183554e-07
1.8505296e-07
1.5470942e-07
1.4324992e-07
1.3786875e-07
1.3517876e-07
1.3411335e-07
1.3551833e-07
1.3911494e-07
1.4473716e-07
1.5679784e-07
1.7892871e-07
2.3492986e-07
3.995752e-07
1.2641445e-06
1.5750713e-05
11.487084
7.5571024
3.2946399
0.96537681
0.22644689
0.048497138
0.0097939566
0.0020030244
0.00039721336
7.2644082e-05
1.2347872e-05
2.0713503e-06
4.4060939e-07
1.8485046e-07
1.3818475e-07
1.2461258e-07
1.1672498e-07
1.0910799e-07
9.9879644e-08
8.8481585e-08
7.5067498e-08
6.1471559e-08
4.6963e-08
3.6158611e-08
13.246577
12.566514
12.380608
11.675161
10.857484
9.4904704
6.9762536
1.9712315
0.031077905
2.7224394e-05
8.1213986e-07
5.0192749e-07
3.4124784e-07
2.448374e-07
1.8225375e-07
1.5450982e-07
1.4317606e-07
1.3788405e-07
1.3525822e-07
1.343384e-07
1.3566498e-07
1.394477e-07
1.4518403e-07
1.5767563e-07
1.8004191e-07
2.3669194e-07
4.0266299e-07
1.270485e-06
1.5768885e-05
11.303791
7.5708446
3.2851048
0.96611187
0.22851678
0.048745552
0.009842921
0.0020114424
0.00039885185
7.2889576e-05
1.240233e-05
2.0857587e-06
4.4271161e-07
1.8523563e-07
1.3830074e-07
1.2464904e-07
1.1673307e-07
1.0910732e-07
9.9871091e-08
8.8483304e-08
7.5056756e-08
6.1461139e-08
4.6940103e-08
3.6120461e-08
8.1242784
12.705942
12.363936
12.239561
11.855028
10.917675
9.6492625
7.2231517
1.7700162
0.015594479
2.2683475e-05
8.243748e-07
4.9725111e-07
3.3191817e-07
2.3587389e-07
1.7945954e-07
1.542833e-07
1.4301287e-07
1.379124e-07
1.3541133e-07
1.3444125e-07
1.3598267e-07
1.3978449e-07
1.4566104e-07
1.5826965e-07
1.8095356e-07
2.379656e-07
4.0458216e-07
1.2724634e-06
1.5746624e-05
10.949748
7.5553831
3.2899292
0.97586311
0.23259394
0.049085724
0.0099256862
0.0020264044
0.00040166722
7.3546443e-05
1.250186e-05
2.1090825e-06
4.4950068e-07
1.8667434e-07
1.3842341e-07
1.2466804e-07
1.1673982e-07
1.0910087e-07
9.986528e-08
8.8410692e-08
7.4992996e-08
6.1396778e-08
4.6859864e-08
3.5868314e-08
0.40723563
6.1550619
12.252765
12.24544
12.339527
11.94028
11.060958
9.7866258
7.3395013
1.2765413
0.0058085714
1.3297996e-05
8.1691804e-07
4.8302787e-07
3.1812495e-07
2.2763264e-07
1.7709672e-07
1.5405377e-07
1.4295171e-07
1.379415e-07
1.3548998e-07
1.3466631e-07
1.3610679e-07
1.4002872e-07
1.4587779e-07
1.5888444e-07
1.8164169e-07
2.3859947e-07
4.0502752e-07
1.2698735e-06
1.5682848e-05
10.772224
7.5576696
3.3164998
0.99561293
0.2394151
0.049784499
0.010089349
0.0020606017
0.00040790244
7.5050188e-05
1.2791394e-05
2.1873735e-06
4.5232807e-07
1.8640017e-07
1.3895521e-07
1.2487406e-07
1.1676549e-07
1.0911198e-07
9.9813856e-08
8.856198e-08
7.5074693e-08
6.1451687e-08
4.6793392e-08
3.5984715e-08
0.14088549
0.3188143
4.7675025
11.737822
12.165305
12.29708
11.95533
11.085276
9.7077435
6.8648341
0.67381912
0.0056527427
1.6321761e-07
7.9353156e-07
4.6345306e-07
3.0108377e-07
2.1474473e-07
1.7450661e-07
1.5377495e-07
1.4290582e-07
1.3797292e-07
1.3565085e-07
1.3476348e-07
1.3637941e-07
1.4032564e-07
1.4620654e-07
1.5921221e-07
1.8212981e-07
2.3896648e-07
4.0426539e-07
1.2626712e-06
1.5576939e-05
10.687151
7.5824846
3.352738
1.0279717
0.24928935
0.051207235
0.010389617
0.0021132307
0.00042211087
7.7149918e-05
1.3352726e-05
2.1390407e-06
5.0042525e-07
1.9872091e-07
1.4037192e-07
1.2458235e-07
1.1686177e-07
1.0850539e-07
1.0161957e-07
8.776287e-08
7.4524538e-08
6.0752758e-08
4.6635703e-08
3.4180352e-08
0.14940964
0.25158343
3.9154907
11.292073
12.039848
12.226868
11.904095
10.974665
9.3679675
6.0483764
0.18723027
0.0040496872
2.8557204e-06
7.7936463e-07
4.3489765e-07
2.8131692e-07
2.0815992e-07
1.7201187e-07
1.5299917e-07
1.4286831e-07
1.3801238e-07
1.3572675e-07
1.3497736e-07
1.3647947e-07
1.4049881e-07
1.4622938e-07
1.5931347e-07
1.8216199e-07
2.3894445e-07
4.0209911e-07
1.2507404e-06
1.5428695e-05
0.020564509
10.46253
7.6007401
3.4060672
1.0653897
0.26241279
0.054244236
0.011003891
0.0022625487
0.00044296631
8.4740506e-05
1.5328405e-05
3.1374238e-06
4.2638182e-07
2.4675042e-07
1.3242725e-07
1.3835097e-07
5.0497557e-08
1.8699998e-07
6.9879715e-08
9.788958e-08
5.6756654e-08
7.3062287e-08
3.5617472e-08
5.3631967e-08
0.12972884
0.21323897
3.3825409
10.867631
11.90806
12.126189
11.778762
10.73384
8.9986868
4.5441214
0.031111665
0.0020854967
4.5053179e-07
6.835459e-07
4.0257096e-07
2.6553934e-07
1.9891805e-07
1.6944394e-07
1.5242107e-07
1.4287161e-07
1.3805566e-07
1.3587958e-07
1.3506562e-07
1.3670116e-07
1.4081035e-07
1.4652181e-07
1.5945815e-07
1.8197551e-07
2.3773692e-07
3.9897076e-07
1.234251e-06
1.5238063e-05
0.0030362385
0.12879816
9.8770652
7.59421
3.5137275
1.1144492
0.28022455
0.059159864
0.012241815
0.0024034108
0.00052354968
0.00010016402
2.5192782e-05
1.0607805e-05
6.9177057e-06
4.3930789e-06
1.1864303e-06
4.6150828e-06
2.9695878e-06
2.4985757e-06
5.5219496e-07
2.5170525e-07
6.0012806e-07
3.179764e-07
6.5679881e-07
4.0120179e-07
0.11934075
0.19043617
3.0108757
10.496752
11.760016
11.983209
11.585096
10.476255
8.4149116
2.2377142
0.12304355
0.00060816312
8.1265222e-07
6.2163937e-07
3.6491936e-07
2.4387493e-07
1.9471631e-07
1.6712241e-07
1.5172871e-07
1.42912e-07
1.381387e-07
1.3594285e-07
1.3525363e-07
1.3677563e-07
1.4101892e-07
1.465572e-07
1.5942652e-07
1.8177403e-07
2.3646931e-07
3.9391998e-07
1.2131136e-06
1.5005137e-05
0.0005597297
0.0067173658
3.5271846
8.8854042
7.5277369
3.6971129
1.2098919
0.30776562
0.07145943
0.014577414
0.0036856837
0.0007237539
0.00041026594
0.00029787821
5.3262513e-05
0.00014986741
2.3918335e-05
1.0628175e-05
2.511623e-05
3.9854012e-06
1.3480084e-05
1.0179224e-05
1.3220415e-05
1.1831261e-05
1.2952263e-05
1.2435925e-05
1.2707075e-05
0.11317692
0.1744901
2.7581094
10.156837
11.591681
11.810768
11.379269
10.051181
7.4509548
0.39739098
0.0073491289
0.00066665723
1.0698261e-06
5.5768271e-07
3.3357977e-07
2.351085e-07
1.8793358e-07
1.6497805e-07
1.511881e-07
1.4287293e-07
1.3824055e-07
1.3610813e-07
1.3532481e-07
1.368159e-07
1.4106003e-07
1.4630969e-07
1.5947539e-07
1.8034257e-07
2.3473764e-07
3.8830053e-07
1.1875954e-06
1.4730463e-05
0.00016904622
0.00064866055
0.16857175
14.218851
7.872552
7.3885775
3.911752
1.4137458
0.4008003
0.097600308
0.026051413
0.0038534692
0.0030907543
0.00064630279
0.0015989935
0.00073823303
0.00079987437
0.00045448727
0.00041868863
0.00026720347
0.00029462039
0.00025782336
0.00026322111
0.00023244605
0.00020308168
0.00019063397
0.00016813686
0.00013453279
0.10848853
0.16381589
2.5596627
9.8473571
11.417246
11.635223
11.054622
9.3515896
5.7708664
0.40796715
0.0018574099
0.00036782197
8.1913257e-07
4.9030982e-07
3.0148615e-07
2.2120707e-07
1.8507952e-07
1.6303714e-07
1.5041628e-07
1.4277301e-07
1.3839892e-07
1.3615626e-07
1.3549749e-07
1.3679702e-07
1.4106906e-07
1.4618835e-07
1.5908166e-07
1.7992034e-07
2.3194758e-07
3.807694e-07
1.1577211e-06
1.4415178e-05
2.1638861e-05
0.00026470939
0.014645307
1.8238047
24.005867
8.0665369
7.5141881
4.4833996
1.7756484
0.60017786
0.18375396
0.062408096
0.048016903
0.030723832
0.03494913
0.021643544
0.016679927
0.010803762
0.0079528296
0.0055121579
0.0044517704
0.0039903437
0.0035070309
0.0027944169
0.0021282686
0.0018346412
0.0014301697
0.00088250849
0.00038027405
0.10532979
0.15489518
2.4014741
9.5771766
11.257096
11.390979
10.552006
8.3590886
2.9685138
0.020764914
0.0018744051
4.2665434e-05
9.089177e-07
4.3632352e-07
2.7942555e-07
2.1551886e-07
1.7986376e-07
1.6129295e-07
1.4983327e-07
1.4265714e-07
1.3850227e-07
1.3634421e-07
1.3559751e-07
1.366536e-07
1.4099861e-07
1.4606933e-07
1.58377e-07
1.7821002e-07
2.293956e-07
3.7276087e-07
1.1238855e-06
1.406096e-05
0.00020944348
0.00036559569
0.0056970818
0.22251655
5.0305002
31.117045
9.9983599
8.0600785
5.3188814
2.7203706
1.2104488
0.65564549
0.54545219
0.51626322
0.48692808
0.33494249
0.23730766
0.152333
0.099514653
0.064610336
0.045996818
0.038527012
0.029701601
0.021017816
0.013527381
0.0081039474
0.0044522528
0.0021069917
0.00089582529
0.00032916927
0.10230987
0.14731998
2.2730536
9.3663375
11.053865
11.01558
9.8582164
6.9383148
0.41146895
0.036776618
7.9555488e-05
4.5583025e-06
6.6727738e-07
3.8159692e-07
2.6274567e-07
2.0600004e-07
1.7796721e-07
1.5983773e-07
1.494056e-07
1.4246721e-07
1.3872887e-07
1.3636269e-07
1.3567049e-07
1.3653346e-07
1.4104928e-07
1.4546524e-07
1.580017e-07
1.7698446e-07
2.2548601e-07
3.630488e-07
1.0863021e-06
1.3670046e-05
0.00087014666
0.00080826663
0.0078670611
0.085156555
1.2779957
8.2985833
34.26721
11.447142
10.850329
8.4898127
5.478308
4.0435672
4.1663591
4.4668077
4.220169
2.9234181
2.0055762
1.2375829
0.74721097
0.44990013
0.27199345
0.16610642
0.094532839
0.05079612
0.025513729
0.012396358
0.0061502764
0.0026655035
0.0010461833
0.0003707552
0.00010022538
0.099453168
0.14073365
2.1825694
9.1595994
10.766102
10.493523
8.7878227
4.8649415
0.46528557
0.0014251268
7.0948445e-05
1.6424084e-06
5.8891761e-07
3.4728498e-07
2.483011e-07
2.0239975e-07
1.7478199e-07
1.5909184e-07
1.4954084e-07
1.4232441e-07
1.390121e-07
1.3619742e-07
1.3573831e-07
1.3629483e-07
1.4098418e-07
1.4518863e-07
1.5683849e-07
1.750662e-07
2.2208148e-07
3.5301123e-07
1.045511e-06
1.3245183e-05
0.0020191035
0.0015731477
0.016362721
0.11103736
0.67195026
3.107565
10.895502
33.888911
26.811587
22.158524
18.618669
17.147233
21.066402
19.898841
14.418495
8.9796737
5.5076697
3.0006006
1.6040937
0.84027939
0.43685467
0.23535451
0.12464908
0.061518462
0.028851162
0.012581836
0.0044568288
0.0012916416
0.00036638257
0.0001030292
3.3488255e-05
1.1184519e-05
0.09679663
0.13592497
2.102882
8.9101994
10.353096
9.6693216
7.255186
2.1714113
0.13376126
0.0011391905
4.8822954e-05
1.0852182e-06
5.1254283e-07
3.156494e-07
2.3975558e-07
1.963581e-07
1.7431148e-07
1.5886372e-07
1.5070142e-07
1.426613e-07
1.3989052e-07
1.3654066e-07
1.3570031e-07
1.3622087e-07
1.4075771e-07
1.4452124e-07
1.5627792e-07
1.731438e-07
2.1731478e-07
3.4159828e-07
1.001891e-06
1.2789627e-05
0.0043956535
0.0028629808
0.029922096
0.21564244
0.81687699
1.924267
5.4735316
12.778042
33.761574
44.387945
43.058046
48.024641
49.66154
38.329681
25.161184
13.949002
7.3068035
3.7225028
1.8866543
0.94708568
0.46375295
0.20746959
0.077240544
0.026855063
0.0087002009
0.0032809679
0.0011925338
0.00041850064
9.7935681e-05
2.9718313e-05
4.1261932e-06
1.7144026e-06
0.094776014
0.13132545
2.0156126
8.5607626
9.7033375
8.5090273
5.2907685
0.41558129
0.015427582
0.00016940216
4.0769508e-06
8.333315e-07
4.3433626e-07
2.9896565e-07
2.3029068e-07
1.9419418e-07
1.7411465e-07
1.587534e-07
1.5183452e-07
1.4301404e-07
1.3892203e-07
1.3657603e-07
1.356756e-07
1.3598046e-07
1.4051011e-07
1.4392342e-07
1.5489461e-07
1.7098998e-07
2.1320434e-07
3.3011271e-07
9.5608801e-07
1.2306998e-05
0.0087651784
0.005687048
0.052214953
0.36833702
1.2651346
2.1192097
3.5809234
8.7097784
16.010354
38.617475
55.573972
67.664678
66.622467
46.758551
28.119679
14.291296
6.6160661
2.675339
1.1335776
0.45879259
0.17541699
0.067231278
0.027073752
0.0087683628
0.0026392625
0.0006980551
0.00028966859
5.7798216e-05
2.5550496e-05
3.7446642e-06