/*--------------------------------*- C++ -*----------------------------------*\
| =========                 |                                                 |
| \\      /  F ield         | OpenFOAM: The Open Source CFD Toolbox           |
|  \\    /   O peration     | Version:  2212                                  |
|   \\  /    A nd           | Website:  www.openfoam.com                      |
|    \\/     M anipulation  |                                                 |
\*---------------------------------------------------------------------------*/
FoamFile
{
    version     2.0;
    format      ascii;
    arch        "LSB;label=32;scalar=64";
    class       volScalarField;
    location    "15000";
    object      nut;
}
// * * * * * * * * * * * * * * * * * * * * * * * * * * * * * * * * * * * * * //

dimensions      [0 2 -1 0 0 0 0];

internalField   nonuniform List<scalar> 
3584
(
6.3420308e-08
6.3483845e-08
5.1092081e-08
6.3589731e-08
5.1086927e-08
4.1473663e-08
6.334508e-08
4.8795388e-08
3.9163595e-08
3.5568231e-08
6.2648027e-08
4.471077e-08
3.5804452e-08
3.2618965e-08
3.2436836e-08
6.2500233e-08
4.4853059e-08
3.6318847e-08
3.2735874e-08
3.0217173e-08
3.087273e-08
6.2771174e-08
4.6144091e-08
3.725981e-08
3.404352e-08
3.1528188e-08
2.946807e-08
3.0202788e-08
6.2931379e-08
4.6460602e-08
3.8065574e-08
3.4906284e-08
3.2644013e-08
3.1222481e-08
2.907032e-08
2.9702622e-08
6.2978857e-08
4.6775852e-08
3.8461539e-08
3.5696843e-08
3.3607871e-08
3.2377537e-08
3.1033546e-08
2.8963945e-08
2.9553917e-08
6.302433e-08
4.6917225e-08
3.8638204e-08
3.6130569e-08
3.4425138e-08
3.3449597e-08
3.2103782e-08
3.0984596e-08
2.8864674e-08
2.9397985e-08
6.3058048e-08
4.7157373e-08
3.8755265e-08
3.6328325e-08
3.4957297e-08
3.4260291e-08
3.3157716e-08
3.2029739e-08
3.091812e-08
2.8840059e-08
2.9333626e-08
6.3090574e-08
4.7287448e-08
3.8869545e-08
3.6413982e-08
3.5249852e-08
3.4820305e-08
3.3847711e-08
3.3044479e-08
3.1927119e-08
3.0905224e-08
2.8809087e-08
2.9302193e-08
6.3119087e-08
4.7509193e-08
3.8979078e-08
3.6483549e-08
3.5340225e-08
3.5204421e-08
3.4459217e-08
3.3840642e-08
3.2985448e-08
3.1899559e-08
3.0880964e-08
2.8801339e-08
2.9269429e-08
6.3145279e-08
4.7633632e-08
3.9094782e-08
3.6553026e-08
3.5389638e-08
3.535646e-08
3.4877452e-08
3.44907e-08
3.376277e-08
3.2955034e-08
3.1881128e-08
3.0877342e-08
2.8791478e-08
2.9261455e-08
6.3169063e-08
4.7838912e-08
3.9206288e-08
3.6623731e-08
3.5425391e-08
3.5419736e-08
3.5143852e-08
3.4918175e-08
3.4415852e-08
3.3773583e-08
3.2937289e-08
3.1859822e-08
3.0872498e-08
2.8787313e-08
2.9251616e-08
6.319085e-08
4.795815e-08
3.9324622e-08
3.6696407e-08
3.5469249e-08
3.5453231e-08
3.5251581e-08
3.524493e-08
3.4793925e-08
3.4383445e-08
3.3752575e-08
3.2927481e-08
3.1855662e-08
3.087096e-08
2.8785078e-08
2.9246475e-08
6.3210851e-08
4.8148042e-08
3.9438202e-08
3.6770505e-08
3.5505379e-08
3.549187e-08
3.5276929e-08
3.550148e-08
3.5185918e-08
3.4836006e-08
3.4382141e-08
3.375173e-08
3.2925411e-08
3.184813e-08
3.0870044e-08
2.8782717e-08
2.9243044e-08
6.3229296e-08
4.8262525e-08
3.9559242e-08
3.6846576e-08
3.5550134e-08
3.5526956e-08
3.5295306e-08
3.5574548e-08
3.5554277e-08
3.5331562e-08
3.4896436e-08
3.4389476e-08
3.3751172e-08
3.2922564e-08
3.1844057e-08
3.0869232e-08
2.8782436e-08
2.9241059e-08
6.3246396e-08
4.8438113e-08
3.9674948e-08
3.6924215e-08
3.5587502e-08
3.5567506e-08
3.5311283e-08
3.5597748e-08
3.602329e-08
3.5852617e-08
3.5426731e-08
3.493123e-08
3.4395579e-08
3.3750927e-08
3.2921176e-08
3.184155e-08
3.087012e-08
2.8781103e-08
2.9238862e-08
6.3262236e-08
4.8548319e-08
3.9798795e-08
3.70036e-08
3.5633638e-08
3.5604377e-08
3.5331773e-08
3.5606774e-08
3.6152055e-08
3.7011004e-08
3.6229021e-08
3.5534345e-08
3.496836e-08
3.4401316e-08
3.3749097e-08
3.2918865e-08
3.1840516e-08
3.0872223e-08
2.8780667e-08
2.9238015e-08
6.3277003e-08
4.8710695e-08
3.9916711e-08
3.708481e-08
3.5672923e-08
3.5646541e-08
3.5347191e-08
3.5636168e-08
3.6204121e-08
3.9513528e-08
3.8323304e-08
3.665159e-08
3.5687662e-08
3.4993154e-08
3.4405192e-08
3.3750943e-08
3.2920229e-08
3.1839367e-08
3.0873975e-08
2.8780124e-08
2.9237074e-08
6.329081e-08
4.8817105e-08
4.0043482e-08
3.7167355e-08
3.5721176e-08
3.5684522e-08
3.5368365e-08
3.5656093e-08
3.6217579e-08
3.9932264e-08
4.3391519e-08
3.9778929e-08
3.7162319e-08
3.5782552e-08
3.5017944e-08
3.4409306e-08
3.3752552e-08
3.2919704e-08
3.1837497e-08
3.0874878e-08
2.878049e-08
2.9236969e-08
6.330377e-08
4.8967382e-08
4.01637e-08
3.7252078e-08
3.5763131e-08
3.5727714e-08
3.5385093e-08
3.5680687e-08
3.6254867e-08
4.0160395e-08
5.4309837e-08
4.8823245e-08
4.1448748e-08
3.7591859e-08
3.5886147e-08
3.5030612e-08
3.4411637e-08
3.375441e-08
3.2920578e-08
3.1836275e-08
3.0874991e-08
2.8781269e-08
2.9236535e-08
6.3315947e-08
4.9070444e-08
4.0293505e-08
3.7337623e-08
3.5814398e-08
3.5766381e-08
3.5407736e-08
3.570279e-08
3.6286776e-08
4.0256027e-08
5.68533e-08
6.1144793e-08
5.7234818e-08
4.3807557e-08
3.8106221e-08
3.5953364e-08
3.5041095e-08
3.4412553e-08
3.3756537e-08
3.2921012e-08
3.1835124e-08
3.0874722e-08
2.878253e-08
2.923642e-08
6.332747e-08
4.9209708e-08
4.0416104e-08
3.7425799e-08
3.5859725e-08
3.5810159e-08
3.5426381e-08
3.5728209e-08
3.6290357e-08
4.0525542e-08
5.8740112e-08
4.3264079e-08
6.352482e-08
7.0891128e-08
4.6657721e-08
3.8439899e-08
3.5987691e-08
3.5045511e-08
3.4413583e-08
3.3758055e-08
3.2922122e-08
3.1834138e-08
3.0873603e-08
2.878385e-08
2.9236127e-08
4.9309872e-08
6.3338383e-08
4.0549019e-08
3.7514256e-08
3.5914809e-08
3.5849338e-08
3.5451156e-08
3.5750636e-08
3.6330471e-08
4.0642132e-08
5.9002388e-08
4.2374544e-08
5.2778301e-08
8.2634327e-08
8.8551384e-08
4.9259586e-08
3.8704102e-08
3.6015628e-08
3.5050306e-08
3.4414063e-08
3.3759711e-08
3.2923342e-08
3.1833516e-08
3.0872353e-08
2.8784462e-08
2.9235336e-08
4.0674039e-08
4.9439184e-08
6.3348773e-08
3.7605902e-08
3.5964008e-08
3.589357e-08
3.547184e-08
3.5776578e-08
3.6335002e-08
4.0795322e-08
5.9840488e-08
3.737421e-08
4.3617725e-08
9.9617099e-08
1.2320764e-07
1.0877428e-07
5.1433131e-08
3.890179e-08
3.6046175e-08
3.5053188e-08
3.4414306e-08
3.376043e-08
3.2924476e-08
3.1833106e-08
3.0871186e-08
2.8785183e-08
2.9233033e-08
3.76973e-08
4.0810067e-08
4.9536832e-08
6.3358695e-08
3.6023413e-08
3.5933369e-08
3.5498824e-08
3.579871e-08
3.6378828e-08
4.0924474e-08
6.0171505e-08
3.6526929e-08
4.3561699e-08
1.2220351e-07
2.2741854e-07
1.8731767e-07
1.2222865e-07
5.3657809e-08
3.9058893e-08
3.606104e-08
3.5056493e-08
3.4414696e-08
3.3760788e-08
3.2925066e-08
3.1831894e-08
3.0870054e-08
2.8785239e-08
2.9228817e-08
3.6076706e-08
3.7792538e-08
4.0937491e-08
4.9657207e-08
6.3368225e-08
3.5978233e-08
3.5521508e-08
3.582519e-08
3.6386358e-08
4.1056747e-08
5.9889533e-08
3.5345344e-08
2.8334585e-08
1.157131e-07
3.985892e-07
4.8884165e-07
2.6560841e-07
1.371161e-07
5.469664e-08
3.912354e-08
3.607374e-08
3.5057822e-08
3.4415179e-08
3.3761472e-08
3.292527e-08
3.1829595e-08
3.0868253e-08
2.8785308e-08
2.922441e-08
3.6019015e-08
3.614058e-08
3.7887004e-08
4.107653e-08
4.9752636e-08
6.3377404e-08
3.5550742e-08
3.5846807e-08
3.6434385e-08
4.1153758e-08
5.9078486e-08
3.4746826e-08
2.3641331e-08
1.0543742e-07
5.1677652e-07
1.0998249e-06
8.820063e-07
3.6673535e-07
1.4229199e-07
5.5366899e-08
3.9195251e-08
3.6088005e-08
3.505837e-08
3.4415402e-08
3.3761893e-08
3.2925298e-08
3.1828307e-08
3.0866728e-08
2.8785189e-08
2.9221273e-08
3.557495e-08
3.6065097e-08
3.6197939e-08
3.7986028e-08
4.1206253e-08
4.9865019e-08
6.3386292e-08
3.5873784e-08
3.6445114e-08
4.1254367e-08
5.8062892e-08
3.4257279e-08
2.2676189e-08
3.7081466e-08
5.1049534e-07
1.8336926e-06
2.2835294e-06
1.4172007e-06
4.2302508e-07
1.4885436e-07
5.5921339e-08
3.9231784e-08
3.6096594e-08
3.5058239e-08
3.441587e-08
3.3762352e-08
3.2925075e-08
3.1826514e-08
3.0866375e-08
2.8784206e-08
2.9219887e-08
3.5895373e-08
3.5606074e-08
3.6107373e-08
3.6266173e-08
3.8083697e-08
4.1348047e-08
4.9958397e-08
6.3394927e-08
3.6497719e-08
4.1324432e-08
5.7086827e-08
3.4044078e-08
2.1997822e-08
1.8824055e-08
4.0050438e-07
2.3094131e-06
4.4348639e-06
3.8187735e-06
1.8301668e-06
4.843723e-07
1.5348525e-07
5.6395362e-08
3.9250203e-08
3.6105619e-08
3.5057953e-08
3.4416124e-08
3.3763065e-08
3.2924489e-08
3.1826099e-08
3.0867605e-08
2.8782061e-08
2.9220765e-08
3.6511187e-08
3.5923431e-08
3.5631425e-08
3.6155401e-08
3.6327431e-08
3.8186687e-08
4.1479837e-08
5.0063615e-08
6.3403357e-08
4.1408967e-08
5.6118061e-08
3.3895363e-08
2.1527762e-08
1.5680837e-08
9.5784623e-08
2.1817069e-06
7.2181664e-06
8.0847221e-06
5.4606996e-06
2.3306857e-06
5.3214183e-07
1.5638182e-07
5.6606283e-08
3.926254e-08
3.6113147e-08
3.5057401e-08
3.4416685e-08
3.3764413e-08
3.2924271e-08
3.1827593e-08
3.0874776e-08
2.8780522e-08
2.9219015e-08
4.1472647e-08
3.6567098e-08
3.5945127e-08
3.5664426e-08
3.6199621e-08
3.6399798e-08
3.8287593e-08
4.1623893e-08
5.0154905e-08
6.3411612e-08
5.5323614e-08
3.3739654e-08
2.0904005e-08
1.4418692e-08
2.3795412e-08
1.5007872e-06
9.3407837e-06
1.5282766e-05
1.2319231e-05
7.2902119e-06
2.5962751e-06
5.5072545e-07
1.5847748e-07
5.6761058e-08
3.9282279e-08
3.612077e-08
3.5058378e-08
3.4417869e-08
3.3766798e-08
3.2924584e-08
3.1835697e-08
3.0889402e-08
2.8779396e-08
2.9215875e-08
5.4616509e-08
4.1562288e-08
3.6581248e-08
3.5974806e-08
3.5690486e-08
3.6250185e-08
3.6464745e-08
3.8394606e-08
4.1757302e-08
5.0253633e-08
6.3419724e-08
3.3331688e-08
2.0271245e-08
1.3937832e-08
1.409204e-08
2.8867755e-07
9.9833697e-06
2.7747322e-05
2.5230477e-05
1.6011479e-05
8.2045113e-06
2.7357893e-06
5.6425667e-07
1.5964071e-07
5.6749005e-08
3.9282034e-08
3.6126259e-08
3.5061326e-08
3.4419823e-08
3.3771631e-08
3.2925677e-08
3.1852092e-08
3.088682e-08
2.8776548e-08
2.9214657e-08
3.2768056e-08
5.4036944e-08
4.1635404e-08
3.6638252e-08
3.599684e-08
3.5725513e-08
3.6296549e-08
3.6540959e-08
3.8498562e-08
4.1902766e-08
5.0342508e-08
6.342771e-08
1.9725126e-08
1.3291132e-08
1.2329973e-08
4.5126101e-08
5.4516152e-06
4.1404167e-05
5.495139e-05
3.6419728e-05
1.9257915e-05
8.6982715e-06
2.8203711e-06
5.7370852e-07
1.6108209e-07
5.6581774e-08
3.9258998e-08
3.6129107e-08
3.5068226e-08
3.4422066e-08
3.3782399e-08
3.2932011e-08
3.1852521e-08
3.0868789e-08
2.8774363e-08
2.9214733e-08
1.9369416e-08
3.2050905e-08
5.3492557e-08
4.1742629e-08
3.6651931e-08
3.6027721e-08
3.5752102e-08
3.6349966e-08
3.6609342e-08
3.8609413e-08
4.2037004e-08
5.0435144e-08
6.3435586e-08
1.2717721e-08
1.1447169e-08
2.0131052e-08
9.8196027e-07
5.7796674e-05
0.00011862906
8.6950965e-05
4.5902533e-05
2.131534e-05
9.178033e-06
2.8660122e-06
5.7686576e-07
1.6335854e-07
5.6203259e-08
3.9193623e-08
3.6132709e-08
3.5087833e-08
3.4431437e-08
3.3816904e-08
3.2945425e-08
3.1833567e-08
3.0858463e-08
2.8773107e-08
2.9215779e-08
1.2064211e-08
1.9165456e-08
3.1407138e-08
5.2991712e-08
4.1840152e-08
3.6708356e-08
3.6050376e-08
3.5789313e-08
3.6398346e-08
3.6688979e-08
3.8715885e-08
4.2182482e-08
5.0520909e-08
6.3443349e-08
1.0528224e-08
1.241334e-08
1.5613738e-07
2.7194946e-05
0.00010248381
0.00019775569
0.00011873516
5.5909142e-05
2.3206263e-05
9.4259031e-06
2.8738474e-06
5.7736053e-07
1.6700035e-07
5.552641e-08
3.9078393e-08
3.614776e-08
3.5157221e-08
3.4554409e-08
3.3869719e-08
3.2927423e-08
3.1825257e-08
3.0853669e-08
2.8772172e-08
2.9217587e-08
9.8116398e-09
1.1377747e-08
1.8994557e-08
3.0799476e-08
5.2468501e-08
4.1984356e-08
3.6721365e-08
3.6082253e-08
3.5816394e-08
3.6454677e-08
3.6760347e-08
3.8829997e-08
4.2316239e-08
5.0607468e-08
6.3450992e-08
1.171929e-08
8.0021025e-09
3.6221878e-06
9.4364458e-05
0.00018936319
0.00028943613
0.00014845709
6.1562726e-05
2.4025807e-05
9.4274122e-06
2.8212391e-06
5.7404898e-07
1.7365754e-07
5.434569e-08
3.8923077e-08
3.6170893e-08
3.5733986e-08
3.4878655e-08
3.3778048e-08
3.29232e-08
3.1822733e-08
3.0850642e-08
2.8771412e-08
2.9219915e-08
1.0445373e-08
9.0965758e-09
1.0657377e-08
1.8679007e-08
3.0320619e-08
5.1953664e-08
4.2113605e-08
3.6779203e-08
3.6105355e-08
3.5855745e-08
3.6504659e-08
3.6842638e-08
3.8937908e-08
4.245959e-08
5.0688967e-08
6.3458489e-08
1.5520327e-08
5.8929932e-07
3.2488711e-05
0.00023320063
0.00053376848
0.00039921012
0.00016603654
6.4822905e-05
2.4028288e-05
9.1962904e-06
2.6914253e-06
5.6252057e-07
1.7286305e-07
5.2596198e-08
3.8646514e-08
3.8484509e-08
3.7499144e-08
3.4494023e-08
3.3757402e-08
3.2922374e-08
3.182137e-08
3.0848733e-08
2.877082e-08
2.9222567e-08
1.1919883e-08
9.4625082e-09
8.4945994e-09
1.0034447e-08
1.8194296e-08
2.9867592e-08
5.1437885e-08
4.2287159e-08
3.6793191e-08
3.6138044e-08
3.5883143e-08
3.6563746e-08
3.6916098e-08
3.9054096e-08
4.2590835e-08
5.0768919e-08
6.3465807e-08
5.7370596e-08
8.438944e-07
0.0002003142
0.00094062004
0.0019963876
0.00049486973
0.00017673562
6.5488376e-05
2.35264e-05
8.6719994e-06
2.4465922e-06
5.436116e-07
1.6001094e-07
4.970001e-08
5.1535004e-08
4.8733821e-08
3.5546917e-08
3.4414716e-08
3.3751602e-08
3.2921474e-08
3.1820076e-08
3.0847072e-08
2.8770292e-08
2.9225543e-08
3.3754585e-08
1.073492e-08
8.5812553e-09
7.9299116e-09
9.545113e-09
1.7536094e-08
2.9478191e-08
5.0923306e-08
4.2440711e-08
3.6853374e-08
3.6161191e-08
3.5924221e-08
3.6614702e-08
3.6999712e-08
3.9161539e-08
4.2728989e-08
5.0844526e-08
6.3472894e-08
6.1711334e-07
2.2453088e-05
0.0006981475
0.0014912712
0.0023663342
0.00055098053
0.00017883021
6.4802524e-05
2.2435841e-05
7.7836184e-06
2.0442288e-06
5.0795517e-07
1.2457821e-07
5.5684043e-08
4.3897508e-08
3.8479626e-08
3.5107354e-08
3.4401629e-08
3.3747566e-08
3.2920288e-08
3.1819106e-08
3.0846154e-08
2.8769863e-08
2.9228259e-08
5.0421319e-07
6.0159521e-09
9.4759264e-09
7.8695203e-09
7.440652e-09
9.1898549e-09
1.6843542e-08
2.9050576e-08
5.0392277e-08
4.2643493e-08
3.6869451e-08
3.619444e-08
3.5951409e-08
3.6676113e-08
3.7073762e-08
3.9277733e-08
4.2854842e-08
5.0916769e-08
6.3479694e-08
1.8881222e-06
0.00044659487
0.0014851061
0.0011356269
0.0021700195
0.00057145166
0.00017725467
6.2134222e-05
2.0515636e-05
6.3702879e-06
1.5462438e-06
4.4413004e-07
6.4160848e-08
2.975181e-08
5.1898548e-08
3.6264281e-08
3.5064903e-08
3.4393009e-08
3.3744958e-08
3.2919209e-08
3.1818273e-08
3.084441e-08
2.8769581e-08
2.9230913e-08
4.4480422e-06
4.29792e-07
1.1345233e-08
8.8328935e-09
7.2985634e-09
7.0316326e-09
9.014086e-09
1.6155143e-08
2.8628649e-08
4.9840313e-08
4.2826461e-08
3.6932833e-08
3.6217095e-08
3.5993461e-08
3.6727166e-08
3.715676e-08
3.9381696e-08
4.2983738e-08
5.0984469e-08
6.3486138e-08
9.5030312e-05
0.0013616481
0.001152911
0.0010643557
0.0022582129
0.00057147339
0.00017075539
5.7136262e-05
1.7409486e-05
4.7620167e-06
9.0158865e-07
1.2886868e-07
3.3710781e-08
5.4843651e-08
4.0187081e-08
3.6177799e-08
3.5036874e-08
3.4389265e-08
3.3742779e-08
3.2917847e-08
3.1816789e-08
3.0842846e-08
2.8768924e-08
2.9232306e-08
6.8627158e-05
4.5923788e-06
4.2334883e-07
1.0566298e-08
8.3378224e-09
6.8706255e-09
6.6666625e-09
8.9508212e-09
1.5594756e-08
2.8163976e-08
4.9268297e-08
4.3065597e-08
3.6950295e-08
3.6250327e-08
3.6019508e-08
3.6789959e-08
3.7229309e-08
3.9494752e-08
4.310052e-08
5.1047437e-08
6.3492155e-08
0.00095207519
0.0012224261
0.0011030729
0.0011181987
0.0027074835
0.00060448819
0.00016153391
4.876962e-05
1.3812258e-05
2.6214247e-06
3.3781086e-07
7.2450137e-08
6.3942758e-08
6.7846234e-08
3.9772918e-08
3.6099409e-08
3.5029543e-08
3.438585e-08
3.3741158e-08
3.2916797e-08
3.1810167e-08
3.0836762e-08
2.876801e-08
2.9232864e-08
0.0010354647
1.5698066e-05
5.8955667e-06
6.6165943e-07
1.0513684e-08
8.0178315e-09
6.5137869e-09
6.3915597e-09
8.9113197e-09
1.5071019e-08
2.768853e-08
4.8677764e-08
4.3287369e-08
3.7018531e-08
3.6271942e-08
3.6061668e-08
3.683983e-08
3.7309329e-08
3.9591108e-08
4.3215297e-08
5.1105099e-08
6.3497671e-08
0.0011280574
0.0013432077
0.0011331266
0.0010668573
0.0035100751
0.00064413866
0.00013894475
3.9051372e-05
7.8988445e-06
9.5508343e-07
2.0489144e-07
1.553165e-07
1.0908272e-07
6.327759e-08
3.926956e-08
3.6105321e-08
3.5022787e-08
3.4383362e-08
3.3740366e-08
3.2910407e-08
3.1789743e-08
3.0830567e-08
2.8764088e-08
2.9230928e-08
0.00088977822
0.00059567694
3.5873015e-05
7.4325578e-06
1.3222524e-06
1.1139012e-08
7.7687093e-09
6.1647474e-09
6.2029746e-09
8.7771805e-09
1.4588627e-08
2.7161258e-08
4.8064051e-08
4.3571141e-08
3.7037569e-08
3.630402e-08
3.6085243e-08
3.6902272e-08
3.7377756e-08
3.9696913e-08
4.3318856e-08
5.1157063e-08
6.3502617e-08
0.001468949
0.0013485373
0.0011952683
0.0012621276
0.0041518771
0.00046378824
0.00010732731
2.2263963e-05
2.6073866e-06
6.017836e-07
4.4793601e-07
4.0186441e-07
1.2393311e-07
5.8209075e-08
3.9296809e-08
3.6099005e-08
3.501704e-08
3.4382031e-08
3.3736421e-08
3.2890468e-08
3.1746824e-08
3.0810261e-08
2.875138e-08
2.92217e-08
0.0011903436
0.001094673
0.00061782849
0.00012994901
8.1925231e-06
3.2278745e-06
1.2721902e-08
8.0697544e-09
5.93704e-09
5.9772845e-09
8.5861416e-09
1.4102109e-08
2.6611298e-08
4.7432276e-08
4.3840555e-08
3.7113045e-08
3.6324162e-08
3.6126825e-08
3.694928e-08
3.7452248e-08
3.9780885e-08
4.341438e-08
5.1202769e-08
6.3506927e-08
0.0014654698
0.0013506245
0.0016209306
0.0021715601
0.0042460579
0.00021505081
6.2753245e-05
7.1906641e-06
1.7146608e-06
1.3339801e-06
1.6178233e-06
4.5952381e-07
1.4429378e-07
5.7635891e-08
3.9289968e-08
3.6096332e-08
3.5005473e-08
3.4379208e-08
3.3718611e-08
3.2839039e-08
3.1662886e-08
3.078807e-08
2.8722665e-08
2.9187596e-08
0.0011598077
0.0015808412
0.0013145146
0.00078157939
8.3371984e-05
1.2238655e-05
3.8598673e-07
9.4555501e-09
7.6857662e-09
5.9947689e-09
5.4015506e-09
8.3091689e-09
1.3669812e-08
2.6017558e-08
4.6768386e-08
4.41789e-08
3.7134464e-08
3.6352998e-08
3.6145874e-08
3.7008791e-08
3.7513227e-08
3.9874612e-08
4.3500689e-08
5.1242183e-08
6.3510545e-08
0.0012021311
0.0015041888
0.0024255851
0.003571578
0.0032329495
9.7982621e-05
2.4417287e-05
5.022414e-06
3.984169e-06
5.2610531e-06
2.0347463e-06
5.7791849e-07
1.4978088e-07
5.7318139e-08
3.9288726e-08
3.6075939e-08
3.4975746e-08
3.4361831e-08
3.3664817e-08
3.2738367e-08
3.1537053e-08
3.0735619e-08
2.8659994e-08
2.9116918e-08
0.00075924323
0.0011940249
0.0014364229
0.0013821022
0.00080216679
6.386158e-05
0.0001219555
1.1157169e-08
8.9884985e-09
6.8248414e-09
5.5265085e-09
4.6207248e-09
7.9586163e-09
1.3261575e-08
2.5395534e-08
4.608345e-08
4.4505365e-08
3.7218638e-08
3.6371124e-08
3.6186296e-08
3.7051341e-08
3.7579894e-08
3.9941565e-08
4.3572397e-08
5.1274485e-08
6.3513422e-08
0.00084090443
0.0016605358
0.0025028712
0.0034133298
0.0014801334
8.2263108e-05
2.0752601e-05
1.2827855e-05
1.6684345e-05
6.7933413e-06
3.0940509e-06
5.7500903e-07
1.5282812e-07
5.712647e-08
3.9271407e-08
3.6007848e-08
3.4909091e-08
3.4305625e-08
3.3550008e-08
3.2565598e-08
3.1345666e-08
3.0659985e-08
2.8535186e-08
2.896621e-08
0.0004152872
0.00070052853
0.0010250477
0.0014272341
0.0014774981
0.00087568447
8.724334e-05
6.1201792e-07
1.3638692e-08
8.6941191e-09
6.1341887e-09
4.7585746e-09
4.10862e-09
7.5638181e-09
1.2899828e-08
2.4729696e-08
4.5348618e-08
4.4909046e-08
3.7250737e-08
3.6394344e-08
3.6196684e-08
3.7104305e-08
3.7629231e-08
4.0017323e-08
4.3638096e-08
5.1300182e-08
6.3515518e-08
0.00065292626
0.0013957907
0.0025959394
0.0027280488
0.0028748047
0.00019320178
7.2151489e-05
4.6106572e-05
2.1082867e-05
1.0899939e-05
2.9186885e-06
5.8351582e-07
1.5451248e-07
5.6849346e-08
3.9177108e-08
3.5832821e-08
3.4769876e-08
3.4171008e-08
3.3337385e-08
3.2307226e-08
3.1104082e-08
3.0552575e-08
2.830779e-08
2.8743662e-08
0.00018481583
0.00035608711
0.00058982633
0.00091527233
0.0012961389
0.0014841941
0.00086743329
7.3730662e-05
3.4490899e-07
1.2483296e-08
8.0355071e-09
5.3413787e-09
3.9110024e-09
3.9817042e-09
7.3235338e-09
1.2557967e-08
2.402864e-08
4.4583303e-08
4.52989e-08
3.7348348e-08
3.6411037e-08
3.6234639e-08
3.7141198e-08
3.7687935e-08
4.0064406e-08
4.3683596e-08
5.1318161e-08
6.35168e-08
0.00044020094
0.0012840398
0.0026985734
0.0030890794
0.00071657342
0.0017487981
0.00016990123
6.9104372e-05
3.0412349e-05
9.9039474e-06
3.1054136e-06
5.8620487e-07
1.5600166e-07
5.654797e-08
3.8961396e-08
3.5509503e-08
3.4523033e-08
3.391687e-08
3.3007961e-08
3.1953408e-08
3.0790183e-08
3.034044e-08
2.7975206e-08
2.8327623e-08
6.9021477e-05
0.00015774925
0.00029666278
0.00050652878
0.00082827648
0.0011966306
0.0014378598
0.00082135023
6.454922e-05
2.8647852e-07
1.1377566e-08
7.1177791e-09
4.345739e-09
3.1484566e-09
3.7828705e-09
7.1108633e-09
1.227186e-08
2.3297158e-08
4.3733067e-08
4.5773482e-08
3.7398409e-08
3.6429771e-08
3.6227907e-08
3.7179449e-08
3.7719549e-08
4.0112577e-08
4.3725321e-08
5.1328567e-08
6.3517234e-08
0.00029037891
0.0013178677
0.0026039139
0.00082285104
0.00047365753
0.0024987881
0.00024037878
8.1077159e-05
2.6993279e-05
1.0545157e-05
3.1196074e-06
5.9086917e-07
1.5700577e-07
5.5867925e-08
3.8475481e-08
3.4935486e-08
3.4096481e-08
3.3497259e-08
3.2532482e-08
3.1513586e-08
3.0426446e-08
3.0124681e-08
2.7331604e-08
2.7894089e-08
1.3604009e-05
5.5376736e-05
0.00013227988
0.00025707509
0.00045736279
0.00074916369
0.0011179975
0.0013616209
0.00068274024
4.0699008e-05
2.2673411e-07
1.0112412e-08
5.7705446e-09
3.3523689e-09
2.7501975e-09
3.457533e-09
6.7911661e-09
1.2033873e-08
2.2566212e-08
4.2820568e-08
4.6234296e-08
3.7510316e-08
3.6451809e-08
3.6264163e-08
3.7208421e-08
3.7776621e-08
4.014777e-08
4.3760574e-08
5.1332811e-08
6.3516784e-08
0.00012284304
0.0012809949
0.0020207094
0.00051786397
0.0006942155
0.0013904628
0.00021248197
7.5239183e-05
2.7551703e-05
1.0549343e-05
3.1011354e-06
5.9762253e-07
1.5896119e-07
5.4892505e-08
3.7683177e-08
3.4129581e-08
3.3487423e-08
3.2889766e-08
3.1933343e-08
3.0969069e-08
2.9981023e-08
2.9706732e-08
2.6633918e-08
2.7012212e-08
1.6716788e-07
8.9645757e-06
4.664316e-05
0.00011585171
0.00023297584
0.00041803266
0.00070104966
0.0010613039
0.0012937751
0.00048037796
4.1670475e-05
1.2479442e-07
8.3974082e-09
4.320788e-09
2.5615923e-09
2.5100806e-09
3.2650642e-09
6.357048e-09
1.1861242e-08
2.1895811e-08
4.1775752e-08
4.6813875e-08
3.7573515e-08
3.6473179e-08
3.6231114e-08
3.7207518e-08
3.7763618e-08
4.011413e-08
4.3749213e-08
5.1328052e-08
6.3515413e-08
0.00012753551
0.0012180265
0.0016880128
0.00072678352
0.0012576181
0.00094475948
0.00020731749
7.6154763e-05
2.7324792e-05
1.0508625e-05
3.1463133e-06
6.2101838e-07
1.5904497e-07
5.2642008e-08
3.6457706e-08
3.2966816e-08
3.2564411e-08
3.2084954e-08
3.118799e-08
3.0435112e-08
2.95428e-08
2.9221274e-08
2.561507e-08
2.6425511e-08
5.4849528e-09
1.1377355e-07
6.380141e-06
3.9750968e-05
0.00010342613
0.00021190935
0.00038711301
0.00065711937
0.00099713542
0.0011527045
0.00026622504
5.4793684e-05
1.3613739e-09
6.4469508e-09
3.1082888e-09
2.0055023e-09
2.185162e-09
3.1630773e-09
5.8789805e-09
1.1669709e-08
2.1367774e-08
4.0689189e-08
4.7419204e-08
3.7696345e-08
3.6506829e-08
3.6261749e-08
3.7219666e-08
3.7829904e-08
4.0154257e-08
4.3744603e-08
5.1316779e-08
6.3513091e-08
0.00012908142
0.0011024169
0.0023848618
0.0015147771
0.0024374217
0.00080537881
0.00020425119
7.573252e-05
2.7714699e-05
1.0688628e-05
3.279748e-06
6.1015763e-07
1.7401571e-07
5.2826234e-08
3.5080786e-08
3.1515796e-08
3.1533861e-08
3.0945411e-08
3.0935495e-08
2.953066e-08
2.8795184e-08
2.8421439e-08
2.4093573e-08
2.4663436e-08
5.2917169e-09
8.0224719e-08
4.866446e-06
3.4761437e-05
9.3621619e-05
0.00019567907
0.00036180252
0.00061678918
0.0009221389
0.00099683661
8.8285117e-05
2.3962914e-05
1.952724e-08
4.7574298e-09
2.2164474e-09
1.7042261e-09
2.0111302e-09
3.0636462e-09
5.4400002e-09
1.1270013e-08
2.1014024e-08
3.9629918e-08
4.8195012e-08
3.7773662e-08
3.654324e-08
3.6261963e-08
3.7208148e-08
3.781528e-08
4.0177241e-08
4.3698395e-08
5.1294118e-08
6.3509781e-08
7.9956011e-10
8.9333447e-05
0.00096028716
0.0022545729
0.0037337087
0.0040875221
0.0008208902
0.00020806139
7.6629995e-05
2.7524987e-05
1.1175358e-05
3.650558e-06
8.724741e-07
1.386949e-07
6.0864421e-08
3.0855714e-08
3.2874753e-08
1.2950612e-08
5.1321854e-08
2.0639901e-08
3.2169654e-08
2.1489115e-08
3.3085725e-08
1.8138266e-08
3.7646686e-08
4.2610526e-09
6.2227535e-08
3.9598371e-06
3.1040737e-05
8.623832e-05
0.00018323037
0.00034137538
0.00058062678
0.00085671957
0.00076107109
2.2224589e-05
1.0909959e-05
2.4267132e-09
3.065448e-09
1.618258e-09
1.4820927e-09
1.8660234e-09
2.9546768e-09
5.1422613e-09
1.0550155e-08
2.0686801e-08
3.8794845e-08
4.8985107e-08
3.7916102e-08
3.6609944e-08
3.6328e-08
3.7226698e-08
3.7789729e-08
4.0142044e-08
4.3692648e-08
5.1265995e-08
6.3505442e-08
1.0739488e-10
5.2633084e-08
8.522797e-05
0.00076040326
0.0020670559
0.0032298343
0.0048639162
0.00093858716
0.00027898754
0.00010298842
4.1656017e-05
1.54443e-05
5.6892397e-06
3.4964888e-06
1.9007234e-06
9.6218079e-07
2.5403392e-07
1.0292702e-06
7.2712662e-07
6.5863627e-07
1.5801716e-07
8.0608037e-08
2.2176669e-07
1.3991362e-07
3.2861306e-07
2.8193469e-07
3.7008177e-09
5.1887822e-08
3.3647778e-06
2.8305377e-05
8.0654741e-05
0.00017362724
0.00032488258
0.00055280146
0.00077337272
0.0004023744
0.00026161077
3.0192202e-06
3.355479e-09
2.0479311e-09
1.2268548e-09
1.2619164e-09
1.7884923e-09
2.8525969e-09
4.9689372e-09
9.712155e-09
2.0050712e-08
3.808449e-08
4.9865574e-08
3.7989046e-08
3.6622325e-08
3.6314211e-08
3.7251354e-08
3.7795926e-08
4.0102332e-08
4.3592543e-08
5.1224635e-08
6.3500013e-08
1.8364812e-11
2.3562795e-09
1.1275076e-05
8.408661e-05
0.00056426053
0.0017020961
0.0028375024
0.0011563946
0.00043790704
0.00021986021
0.00014856098
6.3921727e-05
5.8692872e-05
5.4162717e-05
1.4970549e-05
3.6361807e-05
4.7527511e-06
2.0495897e-06
5.0701212e-06
8.9390419e-07
3.3450073e-06
2.7940958e-06
4.1058089e-06
4.2639508e-06
5.6739409e-06
6.2097161e-06
8.9112713e-06
3.3608658e-09
4.5115429e-08
2.9736957e-06
2.6244563e-05
7.6428311e-05
0.000166277
0.00031275172
0.00052306477
0.00067041271
8.7004448e-05
2.9237092e-05
2.5467563e-06
3.2085158e-09
1.3883333e-09
1.0060867e-09
1.1738298e-09
1.6925864e-09
2.7598315e-09
4.8550919e-09
9.0948605e-09
1.8926089e-08
3.7211496e-08
5.0678366e-08
3.809726e-08
3.6629374e-08
3.6258092e-08
3.7295109e-08
3.7658465e-08
4.0114927e-08
4.3560521e-08
5.1176169e-08
6.3493437e-08
5.2372043e-12
2.030207e-10
4.2360345e-07
0.00019388661
9.2106949e-05
0.00040726953
0.001304112
0.002119282
0.00048767789
0.00014741923
7.0219322e-05
2.1545679e-05
3.8943688e-05
1.9976193e-05
0.00012262605
0.00010693801
0.00017576248
8.0360648e-05
7.1531347e-05
4.9221544e-05
6.2190779e-05
6.0977095e-05
6.9459838e-05
6.9706988e-05
7.0748043e-05
8.0081064e-05
8.377669e-05
9.7690653e-05
3.1185019e-09
4.0717463e-08
2.6889817e-06
2.4694966e-05
7.3265237e-05
0.00016098205
0.00030117926
0.00048786607
0.00054031154
0.00015185354
5.3304998e-06
1.0213027e-06
1.7569927e-09
9.7234517e-10
8.3976701e-10
1.0765755e-09
1.6335736e-09
2.6739984e-09
4.7357901e-09
8.7886e-09
1.7707071e-08
3.5790645e-08
5.1790592e-08
3.8224795e-08
3.6652606e-08
3.625864e-08
3.728629e-08
3.7700378e-08
3.9981848e-08
4.3427714e-08
5.1113075e-08
6.348564e-08
6.4201946e-13
7.5838866e-11
3.0719275e-08
2.3336982e-05
0.00096926444
0.00013018544
0.00031302674
0.00065377544
0.001148744
0.0013645326
0.0003572263
0.0001599874
0.0002360394
0.00035904402
0.0012092855
0.002561548
0.002589595
0.001467439
0.0010570091
0.00076696985
0.00067205037
0.00068252924
0.00068049031
0.00061260181
0.00053634591
0.00055255131
0.00057384573
0.0004485983
0.00028752177
2.9549604e-09
3.7392726e-08
2.4781955e-06
2.3543272e-05
7.1060222e-05
0.00015657815
0.00028807731
0.0004397859
0.00032246021
2.8814638e-05
4.9403384e-06
8.4758266e-08
1.41161e-09
7.4124764e-10
7.5099142e-10
1.0266264e-09
1.5559574e-09
2.5942501e-09
4.6220114e-09
8.638045e-09
1.6913121e-08
3.4212902e-08
5.3227572e-08
3.8367698e-08
3.6657362e-08
3.6253689e-08
3.7254074e-08
3.7582792e-08
3.9995568e-08
4.3357206e-08
5.1040421e-08
6.3476528e-08
6.0155565e-12
9.7852834e-11
1.0433744e-08
2.5596818e-06
0.00018620426
0.0030729994
0.00023573935
0.00031819352
0.00041257367
0.00044976349
0.00042070815
0.00046400786
0.00076935
0.0014317231
0.0027191561
0.0041022975
0.0068809238
0.0068511649
0.0053190239
0.0039402845
0.0030803571
0.0028277001
0.0026094603
0.0024320366
0.0021035207
0.0017195179
0.0013167086
0.0008684944
0.00050136553
0.00028291443
2.8198222e-09
3.48209e-08
2.3193058e-06
2.2759113e-05
6.9343423e-05
0.0001518171
0.00027221064
0.0003712744
6.2574056e-05
8.9779184e-05
1.4847585e-07
6.2471338e-09
7.7549262e-10
5.8923818e-10
6.8905857e-10
9.6101059e-10
1.5090603e-09
2.522596e-09
4.5186831e-09
8.5000081e-09
1.6591386e-08
3.3087086e-08
5.4671638e-08
3.8489583e-08
3.6735396e-08
3.6161453e-08
3.7298784e-08
3.7546672e-08
3.9816486e-08
4.3189887e-08
5.0951038e-08
6.3465971e-08
2.4392678e-11
2.05436e-10
1.2976934e-08
8.1980634e-07
5.2124207e-05
0.00064111748
0.0053602333
0.00046304516
0.00053608464
0.00061167824
0.00063636613
0.00079218907
0.0014706604
0.0031483551
0.0066836048
0.010240819
0.011141858
0.0095097905
0.008009988
0.0067179006
0.0059579142
0.0052648674
0.0045480277
0.0038756799
0.0030647874
0.0022025742
0.0016053717
0.00096677633
0.00051594097
0.00023434529
9.0088412e-05
2.7067293e-09
3.277747e-08
2.2127729e-06
2.2180076e-05
6.7733486e-05
0.00014651294
0.00025050517
0.00029401112
0.00017345246
2.6042595e-06
9.2385599e-08
1.5657886e-09
5.6054313e-10
5.1103839e-10
6.3760658e-10
9.2544415e-10
1.4534317e-09
2.4647728e-09
4.4395756e-09
8.3532635e-09
1.6441222e-08
3.2599983e-08
5.5542405e-08
3.8560502e-08
3.6744792e-08
3.617556e-08
3.7207474e-08
3.7464389e-08
3.9809124e-08
4.3077773e-08
5.0848891e-08
6.3453817e-08
5.5609331e-11
3.8466187e-10
2.5020141e-08
9.2844614e-07
2.6423345e-05
0.00029869189
0.0014487523
0.011231247
0.0042400988
0.0023276905
0.0024026515
0.0032529427
0.0069382804
0.012074736
0.012651234
0.010906533
0.009986255
0.0085900054
0.007529146
0.0067411337
0.0062472829
0.0057448109
0.0050207941
0.0042577601
0.0033405747
0.0023879182
0.0012434375
0.0004611368
0.00015904597
5.4602737e-05
2.0948371e-05
9.1572365e-06
2.6114152e-09
3.1360534e-08
2.1307647e-06
2.167958e-05
6.5940157e-05
0.00013892188
0.00022121152
0.00018012317
0.00021908636
1.4398631e-06
4.2610652e-08
7.6346922e-10
4.445553e-10
4.5255805e-10
6.0390396e-10
8.8082642e-10
1.4224491e-09
2.4170472e-09
4.3980563e-09
8.2384364e-09
1.6364828e-08
3.2516355e-08
5.5940766e-08
3.8607075e-08
3.6747111e-08
3.6107196e-08