/*--------------------------------*- C++ -*----------------------------------*\
| =========                 |                                                 |
| \\      /  F ield         | OpenFOAM: The Open Source CFD Toolbox           |
|  \\    /   O peration     | Version:  2212                                  |
|   \\  /    A nd           | Website:  www.openfoam.com                      |
|    \\/     M anipulation  |                                                 |
\*---------------------------------------------------------------------------*/
FoamFile
{
    version     2.0;
    format      ascii;
    arch        "LSB;label=32;scalar=64";
    class       volScalarField;
    location    "15000";
    object      omega;
}
// * * * * * * * * * * * * * * * * * * * * * * * * * * * * * * * * * * * * * //

dimensions      [0 0 -1 0 0 0 0];

internalField   nonuniform List<scalar> 
3584
(
110.87652
106.69967
7.909332
91.682842
7.5007498
2.60875
79.745152
6.5989665
2.6273836
1.6980871
82.362024
6.3137105
2.8661454
1.9272651
1.4362743
91.047307
7.2919675
3.3450324
2.3168052
1.7539713
1.3353007
97.96752
8.1268229
3.842599
2.7510713
2.146967
1.6911111
1.2905156
102.04052
8.5327859
4.2055068
3.1460321
2.5441549
2.0728944
1.6629929
1.2672695
105.34237
8.7895785
4.3914094
3.4590193
2.9034338
2.4536053
2.0370977
1.6492028
1.2548983
108.47918
9.0110587
4.4751147
3.6461975
3.2036617
2.7968227
2.4102562
2.0176061
1.6420445
1.2484572
111.56952
9.2336921
4.5339899
3.7226785
3.417496
3.0826252
2.7450499
2.3859604
2.0066088
1.6379338
1.2449056
114.63185
9.4581918
4.5907831
3.7582174
3.525999
3.3045821
3.02766
2.7193788
2.373965
2.000589
1.6357943
1.2426238
117.6717
9.6901523
4.6484155
3.7853976
3.5648411
3.4510531
3.2459578
2.9974109
2.7052601
2.367179
1.9971738
1.6344186
1.2416056
120.69478
9.9254483
4.7083239
3.8142262
3.5847906
3.5149804
3.4065257
3.2127652
2.982841
2.6983403
2.3630985
1.9949837
1.6336489
1.2408895
123.70529
10.168383
4.7697596
3.8421842
3.6019571
3.5359323
3.5065644
3.371773
3.1960009
2.9731459
2.6933624
2.3609431
1.9939842
1.6332483
1.2405095
126.70835
10.415407
4.8337123
3.8726677
3.6207123
3.5476565
3.5441003
3.4822182
3.3527786
3.1846952
2.9677756
2.6915562
2.3598845
1.9931296
1.632989
1.2402806
129.7082
10.670318
4.899387
3.9024185
3.6388465
3.5585486
3.5571457
3.5487801
3.4637916
3.3403948
3.1788838
2.9650606
2.6897917
2.3590793
1.9927809
1.632798
1.240181
132.71058
10.930167
4.9678061
3.9348266
3.6588133
3.5701885
3.5653195
3.5710641
3.5431971
3.4544505
3.3354472
3.1751871
2.9628667
2.6893013
2.3588764
1.9925519
1.6327089
1.2400641
135.71946
11.198279
5.0381677
3.9665833
3.6781547
3.5816502
3.5740602
3.5787833
3.5895392
3.5383612
3.4544469
3.3338465
3.1735335
2.9618024
2.6888013
2.358668
1.9923707
1.632694
1.24003
138.7398
11.47231
5.1115346
4.0011506
3.6994153
3.5939487
3.5825912
3.5836537
3.6031
3.5929422
3.5421803
3.4559255
3.3327822
3.1724453
2.9612012
2.6886241
2.3585938
1.9922097
1.6326956
1.2399859
141.77731
11.755126
5.1870998
4.0351634
3.7200302
3.6061164
3.5917781
3.5893849
3.60847
3.6257828
3.6104436
3.5496278
3.457126
3.3323746
3.1718743
2.9606122
2.6883909
2.3585448
1.9921001
1.6326947
1.2399811
144.83724
12.044989
5.2659699
4.0721652
3.7426461
3.6191834
3.6008217
3.5944449
3.6127368
3.6354528
3.6742783
3.6371722
3.5607929
3.4581568
3.3319829
3.1714612
2.9602499
2.6882707
2.3585259
1.9920427
1.6326926
1.2399693
147.92484
12.344335
5.3473328
4.1087213
3.7645956
3.6321856
3.610499
3.6004947
3.6174524
3.6355083
3.7149122
3.7285778
3.6724486
3.5674971
3.4590372
3.3317426
3.1712482
2.9599922
2.6881354
2.3585218
1.9920268
1.6326802
1.2399836
151.04619
12.651987
5.4323449
4.1484709
3.7886294
3.6461506
3.6200644
3.6058509
3.62173
3.6380317
3.7189488
3.792378
3.7914459
3.6926341
3.5726689
3.459867
3.3314656
3.1711543
2.9597542
2.6880254
2.3584928
1.992014
1.6326621
1.2399864
154.2078
12.970027
5.5201866
4.1878875
3.8119839
3.6601186
3.6302595
3.6122643
3.6266179
3.639454
3.713998
3.8198978
3.8752143
3.8264812
3.7045784
3.5743285
3.4596838
3.3313014
3.1710349
2.9595205
2.687931
2.358491
1.9920045
1.632651
1.2399954
13.297788
157.4154
5.6120712
4.230727
3.8375211
3.6751011
3.6403271
3.6179628
3.6309626
3.6423585
3.7168934
3.8197459
3.9300645
3.9483389
3.8672982
3.7146192
3.5745531
3.4600759
3.3311649
3.1709656
2.9593067
2.6878833
2.3585022
1.9920034
1.6326461
1.2400245
5.7071631
13.637037
160.67631
4.2733429
3.8623799
3.6901449
3.6510513
3.6248025
3.636007
3.6442201
3.7151206
3.8095968
3.9575704
4.0572202
4.0378214
3.8936153
3.7169927
3.5771939
3.4595089
3.3310536
3.1709327
2.9591389
2.6878668
2.3585212
1.992008
1.6326448
1.2401159
4.3196335
5.8067387
13.987552
163.99711
3.8895461
3.7062346
3.6616332
3.6309368
3.640504
3.6474356
3.7144843
3.8087826
3.9482903
4.149365
4.2029939
4.0883236
3.9106642
3.7241505
3.5764879
3.4591693
3.3309319
3.1709062
2.9589869
2.6878637
2.3586089
1.99204
1.6326448
1.2402918
3.9160481
4.3658003
5.9099367
14.350834
167.3851
3.7224296
3.6729197
3.6382719
3.6457539
3.6496421
3.711071
3.8075772
3.9177938
4.1818934
4.3510314
4.2905273
4.1175291
3.9144908
3.7233509
3.5752297
3.4583894
3.3308288
3.1708875
2.9588595
2.6878622
2.3587973
1.9921375
1.6326464
1.2404845
3.7396851
3.9450094
4.4159141
6.0180961
14.727008
170.84694
3.6840561
3.6449242
3.6504581
3.6532348
3.710533
3.7938817
3.9105365
4.1538661
4.4296148
4.4806589
4.3339779
4.1206283
3.9161151
3.722878
3.5726681
3.4571056
3.3307723
3.1708794
2.9587956
2.6878669
2.3589415
1.9922319
1.6326588
1.2406451
3.6960001
3.7570728
3.9733282
4.4659903
6.1303108
15.117336
174.38953
3.6528218
3.6559664
3.6557486
3.7099239
3.7884501
3.8990623
4.1044146
4.4574673
4.6507871
4.5951306
4.3726732
4.1401926
3.9167495
3.7218773
3.5714138
3.4563447
3.3307663
3.170878
2.9587758
2.6878676
2.359113
1.9922744
1.6327263
1.2407892
3.6599871
3.7077829
3.7755301
4.0042736
4.5202988
6.2479794
15.522161
178.01902
3.660904
3.6596046
3.7096115
3.7831148
3.8959984
4.0873764
4.4070716
4.7918245
4.8992705
4.7105885
4.4001337
4.1377344
3.9201745
3.7187365
3.5704559
3.4555027
3.3307651
3.1708886
2.958773
2.6878698
2.3592258
1.9922901
1.6328924
1.2408675
3.6667011
3.6683919
3.7204782
3.7941373
4.034596
4.5746337
6.3701163
15.942444
181.74084
3.662383
3.709964
3.7797371
3.8992871
4.0596404
4.3357151
4.8000853
5.1451012
5.0795629
4.7605387
4.4062539
4.136278
3.9171004
3.7140726
3.5696523
3.4548621
3.3308138
3.1708964
2.9587735
2.6878724
2.3592644
1.9923213
1.6330648
1.2409024
3.6665524
3.6719401
3.6760608
3.7329542
3.8138247
4.0677073
4.6334846
6.4981641
16.378588
185.55885
3.7098911
3.7765517
3.8952791
4.0478068
4.3096025
4.7065317
5.2923372
5.4578429
5.1848211
4.7776302
4.4072557
4.132242
3.9106994
3.7097416
3.5676656
3.4543473
3.3308448
3.1709048
2.9587915
2.6878754
2.3593162
1.9924725
1.633161
1.2409109
3.7091333
3.6695489
3.6780441
3.6849513
3.7464836
3.8336792
4.1001997
4.6923811
6.6309982
16.831113
189.47483
3.7739234
3.8807583
4.029908
4.2710058
4.6009688
5.3018652
5.8626698
5.7684001
5.2656239
4.7853031
4.413742
4.1241605
3.8990085
3.7054789
3.5656333
3.4539822
3.330892
3.1709428
2.9588404
2.6878788
2.3593854
1.99266
1.6332348
1.2409171
3.7739015
3.7104253
3.6740578
3.6836313
3.6931045
3.7596607
3.8546197
4.1356133
4.7560426
6.7700688
17.300164
193.48803
3.8695736
4.0236289
4.256565
4.5628602
5.1040414
6.1039716
6.4499108
5.9849183
5.308748
4.8096265
4.4149938
4.116054
3.8918729
3.7008337
3.5635851
3.4538748
3.3310275
3.1711793
2.9588586
2.6878842
2.3594235
1.9928319
1.6332963
1.2409121
3.8612047
3.7753894
3.7107637
3.6772453
3.6900079
3.7024874
3.7740549
3.875743
4.1703784
4.8196786
6.9140174
17.785578
197.59337
4.0128795
4.2336911
4.5129006
4.954388
6.0776313
7.2433836
7.0764344
6.1644788
5.3289644
4.8024659
4.412234
4.1135344
3.8845736
3.6967736
3.5624897
3.4538297
3.3311724
3.1714839
2.9589556
2.6878929
2.3594563
1.9930028
1.6333453
1.2408769
4.010187
3.8565026
3.7749489
3.7121727
3.6820943
3.6959736
3.7110902
3.7878988
3.8979322
4.2081377
4.8882339
7.0642251
18.286791
201.78146
4.2284824
4.4971955
4.9028974
5.6527689
7.737886
8.8244579
7.7107018
6.2485638
5.3191655
4.8010734
4.4036675
4.1097737
3.8774842
3.6925233
3.5617177
3.4537989
3.3312581
3.1718286
2.9591349
2.687905
2.359493
1.9931555
1.633382
1.2408133
4.2199604
4.0044031
3.8554706
3.770701
3.7136163
3.6854071
3.7026495
3.720932
3.8031247
3.920303
4.2451572
4.9565222
7.2189583
18.802537
206.03648
4.4738433
4.8407496
5.4337162
7.6068022
11.189438
10.844501
8.120818
6.2771383
5.3418873
4.7903755
4.3868292
4.1013073
3.8731972
3.6898994
3.5614859
3.4537941
3.3315554
3.1721053
2.9593307
2.6879219
2.3595449
1.9932992
1.6334103
1.2407218
4.4724737
4.2175823
4.0034566
3.8539953
3.7704781
3.7151924
3.6903688
3.708989
3.7299522
3.8175549
3.943658
4.2851453
5.029695
7.3794043
19.330917
210.33578
4.8283609
5.3715483
6.4658356
12.278737
17.854053
13.290885
8.4559194
6.3063709
5.3263626
4.7614827
4.3693842
4.0933599
3.8693969
3.6882894
3.5613758
3.4537971
3.3319588
3.1723709
2.9595432
2.6879542
2.359613
1.9934095
1.6334283
1.2406129
4.8099725
4.4676125
4.2135401
4.0004413
3.8572692
3.769342
3.7170393
3.6936595
3.715882
3.7401656
3.833515
3.9671561
4.3241983
5.1020739
7.5432636
19.869023
214.64881
5.3072166
6.0500989
11.693975
27.861608
29.622706
15.944597
8.699166
6.3036091
5.3217316
4.7370416
4.3557722
4.0854789
3.8671235
3.6875112
3.5613517
3.4538464
3.3323685
3.1726437
2.9597573
2.6880045
2.3597129
1.993514
1.6334422
1.240489
5.3122017
4.8208747
4.4763421
4.2170595
4.0016411
3.8555149
3.7678806
3.7191269
3.698658
3.7225651
3.7495524
3.8483933
3.991448
4.3660374
5.1789888
7.7113815
20.413044
218.9365
6.0215838
7.5345513
30.521159
72.202957
44.462057
17.963367
9.0213495
6.2957679
5.3036441
4.7184393
4.3462261
4.0801551
3.8656166
3.6874185
3.561341
3.4539786
3.3327892
3.1729158
2.9599591
2.688106
2.3597976
1.9935717
1.6334493
1.240368
5.9829085
5.3119741
4.8429755
4.493946
4.2207776
3.9939993
3.8531618
3.7674746
3.7212705
3.7019683
3.7295871
3.7599976
3.8649172
4.0158013
4.4065885
5.254163
7.8806808
20.957894
223.15207
6.9896656
26.051281
137.42093
137.78697
60.493688
18.798154
8.8752356
6.2661653
5.2870287
4.7044125
4.3394616
4.0761308
3.8649724
3.6873713
3.561422
3.4542313
3.3332448
3.173175
2.9601574
2.6882012
2.3598747
1.993685
1.6334483
1.2402553
7.0021095
6.0451437
5.3849303
4.8885751
4.5176843
4.2349067
3.9974306
3.8458603
3.7668253
3.7236863
3.7069497
3.7365376
3.7696702
3.8800223
4.0405962
4.4495046
5.3330794
8.0515514
21.497532
227.24087
7.394814
142.37919
354.36525
215.54833
71.090269
19.802765
8.7436053
6.2406676
5.2651486
4.6958731
4.3353831
4.0738348
3.864759
3.6874441
3.5617647
3.4545962
3.3336736
3.1734308
2.9603299
2.6883169
2.3599873
1.9937816
1.6334657
1.240183
9.5571982
7.0777614
6.1680255
5.4705088
4.9482068
4.5525942
4.2463232
3.9893925
3.8454685
3.766895
3.7261136
3.7102898
3.7435918
3.7801634
3.8968431
4.0653554
4.4905787
5.4087705
8.2199878
22.024603
231.14259
88.352124
575.10575
630.19969
274.36513
80.301717
19.596272
8.6505957
6.1946425
5.2379738
4.6914582
4.3335622
4.0728144
3.8647131
3.6879852
3.5624362
3.4551169
3.3340677
3.1736743
2.9604631
2.6884019
2.3604789
1.9941719
1.6334986
1.2401436
88.851978
9.6469308
7.346024
6.3693621
5.6134874
5.031661
4.5921379
4.2596845
3.9929879
3.8434418
3.766236
3.7286816
3.7151726
3.7506719
3.7900035
3.9118354
4.0899851
4.533268
5.4868662
8.3859346
22.531079
234.79319
568.61563
1361.3854
924.56669
337.3654
80.090589
19.170488
8.6203064
6.145946
5.2160935
4.6897887
4.3326811
4.072092
3.8646952
3.6890354
3.5634153
3.4556519
3.3343728
3.1738728
2.960526
2.6889255
2.3619929
1.9945653
1.6336923
1.2401653
523.92604
121.14188
10.442546
7.7392193
6.7055195
5.8115381
5.1407903
4.6454693
4.271747
3.9864188
3.8419432
3.7673312
3.7314162
3.7185164
3.7576486
3.8003303
3.928563
4.1145345
4.5733831
5.5596757
8.5444672
23.007925
238.12708
1913.3992
2297.4074
1177.7987
370.43154
78.604193
18.680349
8.5349764
6.0972148
5.2030975
4.689218
4.3325085
4.071724
3.8648148
3.6908151
3.564664
3.4560696
3.3347907
3.1739767
2.9608646
2.690546
2.36518
1.9958687
1.6343861
1.2404985
1861.5688
872.06576
213.19102
13.972163
8.4580872
7.2049655
6.1419175
5.3115392
4.7097571
4.2834942
3.9887752
3.8409978
3.7674975
3.7339668
3.7231845
3.7646465
3.8101839
3.9429606
4.1380834
4.6139484
5.6329839
8.6952815
23.446066
241.0801
4089.3635
3182.3428
1391.9653
371.76238
76.749375
18.381243
8.4653542
6.0587902
5.1966792
4.6890725
4.3323069
4.0714101
3.8653209
3.6932482
3.565611
3.4564995
3.3358333
3.1742238
2.9624202
2.694756
2.371436
1.9972729
1.6359593
1.2417634
5151.0653
3383.1928
1417.5341
379.54265
24.782365
9.4527534
7.696248
6.4562518
5.5268754
4.8171447
4.2998278
3.9812053
3.8400346
3.7677479
3.7369946
3.7264758
3.7713896
3.8201221
3.9590787
4.1616626
4.6511902
5.6985053
8.8327748
23.836068
243.59192
6747.0252
4233.7258
1476.1728
367.44208
74.94688
18.123047
8.3886949
6.0373518
5.1951119
4.6890425
4.3322346
4.0713978
3.866988
3.6968299
3.566767
3.4586624
3.3386528
3.1758162
2.9671357
2.7030296
2.3808715
2.0006416
1.6394734
1.2446027
12555.658
8049.6286
4014.4317
1986.8917
542.9595
26.001557
9.5398369
7.8601962
6.6459897
5.6660421
4.8918396
4.3169718
3.9811021
3.8396007
3.7696908
3.7393935
3.7308054
3.7779568
3.8298198
3.9722952
4.1829371
4.6871589
5.762103
8.9567462
24.169247
245.60831
11900.96
4903.6743
1499.8624
363.03193
73.13341
17.868229
8.3294682
6.0256325
5.1941538
4.6913652
4.3323061
4.0720788
3.8718162
3.7019153
3.5690731
3.4653264
3.3450217
3.1810069
2.9772706
2.7173232
2.3953332
2.0054658
1.6464797
1.2505288
29318.207
15815.286
8604.8141
5424.0427
2629.796
766.40268
33.959438
10.300356
8.1903829
6.7335926
5.7156188
4.9471273
4.3143673
3.9790714
3.8368805
3.7710334
3.7426217
3.7339868
3.7840998
3.8391281
3.9872334
4.2046886
4.7194211
5.8154463
9.0614626
24.437325
247.08269
15723.837
5907.3587
1501.0347
358.19457
71.706295
17.709712
8.2832154
6.022322
5.1971273
4.6947953
4.3325051
4.073005
3.8815049
3.7120091
3.5783757
3.4824897
3.3584614
3.1935208
2.9961994
2.7390096
2.4138206
2.0123891
1.6595112
1.2596721
68447.981
32647.66
18264.087
11118.421
6175.9111
3276.82
933.57001
32.535429
10.384177
8.2865299
6.8429469
5.7332215
4.9408462
4.2887918
3.9751614
3.837158
3.7728961
3.7448942
3.7380108
3.7895045
3.8483608
3.9987419
4.2222601
4.7477107
5.863812
9.1470313
24.633473
247.97712
27871.6
6603.31
1500.2644
352.91219
71.090416
17.61034
8.2405996
6.0208341
5.2069804
4.7032092
4.3376334
4.0849059
3.9025989
3.7327037
3.5990192
3.5143263
3.3825072
3.2174192
3.0260404
2.7691047
2.4380371
2.026061
1.6787366
1.2764435
176323.49
76240.897
39400.475
21868.07
12248.487
7238.3112
3797.0118
1048.9166
30.047622
10.88315
8.4636002
6.8531456
5.6987102
4.8853588
4.2687638
3.976186
3.8365777
3.7745344
3.7483048
3.7412702
3.7944136
3.8563719
4.0119118
4.241536
4.7732447
5.9006986
9.2089205
24.752007
248.26152
42721.408
6957.1905
1494.2643
351.32689
71.057829
17.558964
8.2096613
6.0412798
5.2441116
4.7154284
4.342704
4.100366
3.937727
3.7753834
3.6463202
3.5729172
3.425006
3.2576888
3.0700018
2.8078059
2.4668299
2.0402262
1.7174296
1.2949145
573814.44
206696.03
90025.486
45549.417
24616.521
13886.709
7903.7169
4154.6233
1018.8908
21.706315
10.848242
8.4873861
6.8226294
5.6568475
4.8059234
4.244515
3.9724055
3.83658
3.7766528
3.750654
3.7453132
3.7984396
3.8642147
4.0211643
4.2542098
4.7901668
5.9272505
9.2453582
24.7885
247.91281
93009.442
6884.3678
1503.9824
353.92742
71.413929
17.554653
8.1962338
6.0805308
5.2759602
4.7295162
4.3790065
4.1527702
4.0077016
3.8553895
3.7244436
3.6575669
3.4874238
3.3176436
3.1274161
2.8548291
2.5013523
2.0667639
1.7594057
1.3278555
2635869.9
669316.16
234635.37
101171.62
50401.128
26921.869
14879.134
8390.2081
4400.1833
849.8438
15.286158
10.915505
8.4479679
6.7801556
5.5389706
4.7333961
4.2230151
3.97313
3.837373
3.7784439
3.754396
3.7483531
3.8025215
3.8696852
4.030926
4.2708477
4.8100389
5.9480229
9.257939
24.74034
246.91405
89187.229
7029.3657
1541.135
360.19895
72.402309
17.624636
8.235537
6.1659675
5.3546273
4.7741109
4.4229623
4.2148876
4.1111498
3.9876551
3.8610189
3.7923414
3.5869323
3.4011797
3.2005041
2.9098847
2.5412213
2.1029784
1.8267916
1.3617415
25727336
3007929.3
745986.55
262783.1
112282.52
55250.172
29141.309
15924.742
8879.8835
4581.6637
551.3877
15.68402
10.809433
8.3989087
6.6360382
5.4178944
4.6165447
4.2010212
3.9714766
3.8363891
3.7808482
3.7566848
3.7522092
3.8054513
3.8753977
4.0367223
4.2782736
4.8145148
5.9512191
9.2414923
24.605425
245.25556
91541.34
7675.4525
1597.8158
369.76332
74.325169
17.871092
8.3418882
6.2800251
5.4010371
4.8005676
4.5329089
4.3683949
4.2995255
4.2002997
4.0504234
3.9572761
3.707077
3.506789
3.2849958
2.9719465
2.5880939
2.1375687
1.9356077
1.3858715
28274635
3335334.4
817550.51
288577.87
122268.21
59494.72
31056.672
16784.589
9246.0659
4592.1191
244.17174
14.012913
10.763106
8.219952
6.4813374
5.2405199
4.5550104
4.1768683
3.9626857
3.8386953
3.7825712
3.7604162
3.754874
3.8089245
3.8775564
4.0374749
4.282333
4.8172284
5.9472661
9.2016911
24.3837
242.93416
25725376
129448.94
8706.4785
1697.2035
385.50744
77.855585
18.453393
8.5722582
6.4006935
5.5139443
4.9577991
4.7029253
4.5533811
4.5472646
4.4957231
4.3402917
4.2120168
3.9001437
3.6440621
3.3857692
3.0429397
2.6411849
2.2082728
1.9636647
1.4246132
30480378
3621803.6
879903.75
310813.56
130762.44
62992.643
32553.552
17416.73
9469.256
4107.3542
62.664986
14.468452
10.477628
8.0272293
6.2310372
5.1132753
4.4684528
4.1527263
3.9608871
3.8404103
3.7854709
3.7623555
3.7587009
3.8103785
3.8803817
4.0383483
4.2840974
4.8155512
5.9223995
9.1313026
24.075433
239.94894
28272545
2468680.6
127056.25
11001.962
1911.9926
420.41376
84.32015
19.618059
9.1106575
6.6343021
5.6497706
5.0537766
4.9271918
4.9078243
4.9597675
4.934732
4.7105067
4.4860326
4.0844337
3.7938143
3.4946133
3.1226049
2.7061277
2.2726631
1.9986998
1.423031
32279698
3861749.9
931474.27
329247.17
137604.85
65656.756
33620.957
17826.615
9514.6245
2905.0243
22.965998
13.529738
10.252128
7.7057345
5.9761973
4.9176497
4.4280245
4.1291204
3.9497889
3.8447705
3.7872493
3.7660458
3.7607854
3.8150459
3.8861849
4.0409952
4.2804226
4.8094312
5.8966549
9.036408
23.682231
236.30132
30478534
2858018.2
322960.29
115987.82
14891.175
2415.9505
500.90872
99.802901
25.024463
9.108038
7.0846722
5.7315924
5.4155723
5.5155569
5.4105562
5.4954859
5.5027537
5.2541818
4.9588173
4.4588825
4.0300994
3.6431984
3.2199544
2.7747235
2.2827642
2.0026561
1.4259554
33705988
4055726.8
973037.49
343750.29
142738.6
67518.441
34298.832
17994.243
9244.9207
1169.9812
20.954829
13.573948
9.8203443
7.3759157
5.7092384
4.8431471
4.3630375
4.1091746
3.9478502
3.8471491
3.7912955
3.7678394
3.764853
3.8167934
3.8880665
4.0405531
4.276721
4.7889756
5.8516358
8.9140476
23.206024
231.99977
32277996
3196347.5
414035.73
77092.871
94614.206
19882.782
3422.6608
789.3224
159.06776
40.64993
20.244264
6.8076282
6.6437637
6.3562098
5.7570272
6.0485563
6.2514615
6.3226221
5.9704043
5.4413636
4.7386875
4.2284056
3.7895875
3.3346243
2.8704926
2.3805124
2.0069647
1.3771306
34818578
4208426.9
1004719.7
354424.2
146283.94
68679.06
34570.228
17808.993
8324.355
339.35541
21.539099
12.73265
9.4250378
6.9455517
5.4619333
4.7095619
4.335016
4.0918891
3.942778
3.8503101
3.7937186
3.772154
3.7662538
3.8169181
3.8875339
4.0372916
4.2671808
4.7724524
5.8013297
8.7678902
22.650195
227.06203
33704372
3490791.2
482440.28
81450.427
31084.451
68539.122
25012.103
6246.1895
1466.043
510.92506
147.79158
42.541635
31.034153
17.098957
9.778676
9.1126217
7.9431668
7.9118823
7.7498479
7.2455992
6.6331671
5.847215
5.1536977
4.561542
3.9680857
3.3203082
2.4922544
1.9672578
1.3225922
35674195
4324348.6
1027694.9
361748.87
148479.83
69114.547
34357.745
17203.256
5995.4406
156.75997
16.54121
12.476023
8.8507425
6.4975349
5.2605687
4.6614231
4.2884554
4.0804023
3.9419451
3.851874
3.7971742
3.7740262
3.768785
3.8143696
3.8869211
4.0346696
4.2519603
4.7418763
5.7355333
8.5974382
22.019519
221.51432
34817032
3736187.7
547773.51
92533.375
28006.582
15799.016
45126.897
24327.056
11190.554
4181.1769
1290.9732
521.98705
290.65479
153.31437
72.412078
43.604282
28.381732
22.597643
18.688339
16.388179
14.936199
13.625793
11.382338
8.6420521
6.4308254
4.712919
3.381351
2.4260284
1.7867709
1.1634941
36310735
4409398.1
1043285.8
366185.18
149267.36
68773.715
33610.855
16009.592
2152.2938
65.774541
17.396253
11.5474
8.2596914
6.1681862
5.129562
4.5729085
4.2705809
4.0809069
3.9365291
3.8599462
3.7990136
3.7773881
3.76929
3.8147624
3.8815415
4.0282835
4.2368027
4.7137974
5.6631397
8.4058757
21.32051
215.39174
35672704
3934975.2
606244.92
106604.26
24770.428
14017.951
8041.2493
25647.638
19687.47
10855.099
6349.5104
3559.4441
2014.6861
1104.9223
537.74847
298.76543
188.62721
130.87954
93.249742
66.958462
45.652351
31.550793
20.786009
13.106676
8.3249335
5.6281742
3.8310766
2.7571087
2.0277198
1.5820896
1.1125224
36770554
4468826
1052711
367710.62
148633.89
67526.915
32125.444
13374.413
388.84066
13.678901
15.059603
10.876856
7.5581412
5.8235002
4.994849
4.5464113
4.2499444
4.0943744
3.9413629
3.856262
3.7998614
3.7782024
3.7710021
3.8125256
3.8791311
4.0190366
4.2159334
4.6729483
5.5786658
8.1947423
20.561136
208.73737
36309303
4092059.8
658180.68
120109.49
25916.407
10793.525
7860.7659
4217.8842
7037.0283
10127.259
7822.0319
5263.0709
3113.8806
1814.6379
1212.2778
828.38855
553.20655
351.63845
214.1178
124.9266
69.980675
40.980559
24.831389
14.450836
8.6374574
5.2692301
3.5843448
2.8010066
2.3036287
1.8868873
1.5986091
1.2213858
37093654
4506801
1055464.1
366191.72
146333.79
65123.16
29411.325
7841.4029
139.62452
23.786119
14.960778
9.8328193
7.0231887
5.658494
4.9250119
4.4954702
4.2406109
4.1002964
3.9455537
3.8657681
3.7967836
3.7790062
3.7717745
3.8093471
3.8720738
4.0080704
4.1959888
4.6340475
5.4879068
7.9676897
19.750703
201.60235
36769196
4212629.8
704108.11
138829.67
29280.63
10017.86
6065.0379
4417.8467
2516.3804
2714.9711
2919.2363
2706.8799
2260.5251
1807.1752
1424.8173
1044.7645
696.94186
437.35389
256.83142
142.2938
75.369166
37.643139
16.229888
7.7362918
4.8783936
3.92832
3.3226786
2.9047805
2.5618051
2.2655309
1.9770401
1.867672
37301566
4524555.8
1050913.9
361360.15
142028.87
61194.339
25039.678
665.66905
12.455378
21.31764
13.248843
8.8938562
6.6553581
5.4735591
4.8293668
4.4927225
4.2335916
4.1053735
3.9532034
3.880366
3.80017
3.7799578
3.7712838
3.804421
3.8666786
3.9952739
4.1694611
4.5844344
5.3888598
7.7275525
18.899463
194.04358
37092397
4303553.8
743814.87
162381.28
39156.276
11556.947
5379.4174
3793.8945
2517.1868
1695.1361
1684.0134
1725.0749
1722.8527
1659.0936
1421.6418
1023.4847
660.05148
372.06189
186.73077
83.310652
34.377597
14.841517
8.2929455
5.0899211
3.9404037
3.4849448
3.2592407
3.0454348
2.8084039
2.5731458
2.4330107
2.4090853
37402587
4523122.5
1038630.5
352494.3
135160.24
55318.633
16879.922
301.5745
29.542858
17.105197
12.546757
8.3320527
6.3092328
5.3732059
4.7921419
4.4716043
4.2304256
4.1210041
3.9538438
3.8569164
3.8015154
3.7801675
3.7690157
3.8012297
3.8558138
3.9815672
4.1449424
4.5365793
5.2852897
7.4783834
18.018368
186.12183
37300439
4371047.5
782002.24
186929.92
50459.704
15931.125
6289.1155
3432.0224
2566.2099
1668.3257
1498.9499
1570.3686
1569.6262
1483.9054
1197.3488
809.3618
478.47846
247.48954
109.89405
42.972618
16.544249
7.1874737
4.3914507
3.8717885
3.5474908
3.4253852
3.2782609
3.1234928
2.9404966
2.7835423
2.7702282
2.9861096
37412219
4502005.2
1017296.3
338411.85
124916.47
46368.106
4128.8181
124.76953
27.103025
16.203289
10.941124
8.0347621
6.1886206
5.3180118
4.7281717
4.4792334
4.2390876
4.1615388
3.9319445
3.8540111
3.8047744
3.7790695
3.7670192
3.7935287
3.8491234
3.9651018
4.1139986
4.4806901
5.1773001
7.2233668
17.118446
177.89853
37401620
4419782.9
821943.23
215014.49
62094.129
20586.615
8450.9174
4046.4703
2467.6217
1946.596
1536.7683
1588.6939
1583.9043
1443.8477
1074.6554
615.37494
313.21542
136.0629
53.730517
19.630401
8.0702582
4.7037981
3.8514878
3.5750499
3.5042743
3.407901
3.2933523
3.1522866
2.9920814
2.8731738
2.9676837
3.3667291
37327081
4459648.3
983666.58
317194.27
110513.85
31503.213
3348.2208
23.772501
24.851559
14.978634
12.75444
8.079713
6.0083972
5.2572851
4.6917248
4.4772571
4.2748846
4.081025
3.9215801
3.8522299
3.804818
3.7780469
3.7632881
3.7890172
3.8362959
3.9491908
4.085814
4.4268059
5.0672691
6.9665467
16.210764
169.43309
37411479
4451260.9
863866.96
244085.12
75200.478
25582.973
10593.047
5201.7999
2930.983
1991.8663
1727.5029
1655.4622
1618.2409
1423.2557
907.9978
467.19375
211.49974
86.670199
31.015624
11.709271
5.9957004
4.3221443
3.8048977
3.6235646
3.5061752
3.4207946
3.3040111
3.1666112
3.015747
2.9160312
3.0605619
3.5890967
37139251
4392843.4
932905.17
286780.18
92794.112
10324.307
133.19218
32.169728
20.354769
18.413298
13.410948
8.1572521
5.8667304
5.2958584
4.6907736
4.5698821
4.227479
4.0507804
3.9226382
3.8515479
3.8067422
3.7761809
3.7592679
3.7814484
3.8278001
3.9298911
4.0521323
4.3675743
4.9562349
6.7107147
15.305372
160.7792
37326657
4468842.9
903748.75
270688.01
88649.235
31503.698
12950.153
6321.0017
3577.3188
2355.2727
1819.5558
1748.2051
1709.2001
1403.1409
740.24728
301.84473
112.02236
41.408503
16.102796
7.485182
4.8564184
4.0422649
3.7332759
3.5980121
3.5076871
3.4250078
3.3124987
3.1794516
3.034463
2.944642
3.1235567
3.7315104
36842440
4296210.2
859985.3
247591.48
62743.35
2006.4909
72.753847
29.252052
23.321206
21.634764
13.891032
8.1640139
5.8324566
5.1844809
4.7780997
4.4940437
4.1945354
4.0359523
3.9240184
3.857322
3.8078607
3.7732911
3.7551991
3.775952
3.8139902
3.9123062
4.0216053
4.3108274
4.8456873
6.4594487
14.412099
151.98229
37139217
4472909.1
943857.38
292766.98
100980.72
37784.293
15810.413
7560.226
4174.7928
2718.3819
2077.8821
1852.6466
1768.7568
1376.8169
584.09837
210.7935
70.119518
22.807024
9.3480612
5.5557989
4.3618481
3.9341567
3.7089158
3.598195
3.5120936
3.4325219
3.3226499
3.1928163
3.0541747
2.9745962
3.1788644
3.8554185
36413149
4163846.6
765190.19
190363.94
23378.431
1342.8693
50.851579
28.009198
30.69744
22.563305
14.015681
8.1624841
5.7402502
5.1714955
4.759965
4.4404362
4.1811207
4.0326932
3.933646
3.8609177
3.8088372
3.7704509
3.7506304
3.768409
3.8038789
3.8913134
3.9867397
4.2509904
4.7367827
6.214686
13.538446
143.07643
36842961
4459980
981669.24
311986.37
111525.33
43775.23
18879.145
9066.065
4928.1477
3051.7461
2274.3214
1985.4654
1899.5338
1403.894
485.90292
135.56277
36.32236
12.590386
6.5306389
4.7528347
4.1529618
3.8840097
3.6993481
3.5973818
3.5147583
3.438603
3.3310604
3.2067045
3.0736371
3.0036985
3.2373042
3.979333
35812731
3993969.9
657687.56
114603.34
18808.902
710.91617
40.531462
38.601781
35.412131
22.987215
13.868605
8.1458162
5.6924021
5.1845221
4.7264144
4.4086492
4.184033
4.0443933
3.9406639
3.868878
3.8119395
3.7670207
3.7466016
3.7620506
3.7899153
3.8726547
3.9552258
4.1941553
4.6304982
5.9791908
12.69237
134.08169
36414470
4432381.7
1010917.8
327829.35
120641
49126.566
21883.215
10675.566
5791.5584
3520.5825
2476.4615
2092.7462
2022.3823
1444.5363
445.64518
107.75544
25.374394
8.4211001
5.3481717
4.4311796
4.0613422
3.8616725
3.6950927
3.5975011
3.5196966
3.4465086
3.3419356
3.2211109
3.0950366
3.0360195
3.2970581
4.1134753
35009105
3786968.8
561501.06
106160.56
16131.213
320.84165
42.934001
49.493579
36.206292
22.971036
13.712974
8.1261147
5.7101437
5.1717893
4.7044722
4.4056589
4.1993845
4.0537068
3.9558452
3.8761574
3.8109062
3.764267
3.7416032
3.7544356
3.7785652
3.8510179
3.9204264
4.1359309
4.5276071
5.7538886
11.877809
125.00278
35815168
4389524
1036268.4
338971
127965.15
53889.483
24662.048
12281.977
6717.8055
4087.1126
2795.9845
2256.4719
2197.3758
1575.8458
406.07377
86.799897
16.599626
6.7838904
4.8840928
4.2965783
4.0088249
3.8598156
3.6963258
3.5982041
3.5224459
3.4534125
3.3509063
3.2362493
3.1159605
3.0682693
3.3620684
4.257622
33951256
3541285.9
505664.63
132467.13
9112.1527
166.34522
60.407427
55.337972
36.206458
22.536902
13.604127
8.123569
5.7311179
5.1259006
4.7177935
4.4078538
4.2141876
4.0798832
3.9684158
3.8854235
3.8110976
3.7610595
3.7374077
3.7474706
3.7649771
3.8318936
3.889097
4.0811089
4.4288615
5.5405883
11.101103
115.82619
35013072
4326007.4
1056103.8
347514.95
133381.54
57891.366
27266.093
13830.696
7664.4831
4700.8668
3188.2408
2497.0648
2350.8875
1757.4434
370.34133
80.151495
15.266941
5.9629889
4.6874216
4.2296451
3.9834874
3.8543362
3.6945084
3.600592
3.5280784
3.4620064
3.3625588
3.2518786
3.139321
3.1036471
3.4292508
4.4163562
32587857
3259140.2
561241.88
124991.41
5456.1415
115.40282
74.656563
54.955163
35.827937
22.155317
13.533869
8.1461353
5.7332322
5.1528618
4.7140503
4.4529459
4.2512455
4.0976659
3.9882667
3.8911241
3.8097087
3.7583587
3.7320025
3.739741
3.7527574
3.8104096
3.8553358
4.0260904
4.3343823
5.3393136
10.362361
106.51803
33957658
4239070
1063711.2
352960.6
137789.55
61183.464
29661.35
15398.256
8640.2753
5326.46
3637.6067
2808.438
2549.2474
2032.7988
366.77392
69.949592
12.831184
5.7300989
4.5911443
4.1846392
3.9575253
3.8328456
3.6857847
3.6025288
3.5313123
3.4696421
3.3721751
3.2684393
3.1619397
3.1395447
3.502448
4.5891553
30870909
2988634.9
650259.33
106865.02
2953.7862
106.04279
80.843999
53.590889
35.003424
21.955412
13.515878
8.193637
5.8330474
5.1436229
4.7803082
4.4737466
4.2786449
4.1310139
4.007608
3.9014348
3.8094514
3.7554074
3.7276978
3.7324185
3.7398635
3.7913495
3.8250744
3.9746568
4.24495
5.1509856
9.6673178
97.019931
32598112
4139606.2
1057788.8
354324.1
141265.12
64237.314
31898.533
17022.837
9727.7297
6046.5331
4156.6302
3205.1481
2813.146
2132.2003
468.01125
67.862031
13.381414
5.5791784
4.5109007
4.1670461
3.9451028
3.8148428
3.6788044
3.6049153
3.5376772
3.4790476
3.3846529
3.2854439
3.1872585
3.1785067
3.5787176
4.7809503
28756470
2869429.6
658948.87
72236.416
1677.373
104.86204
79.041774
52.313381
34.399006
21.892507
13.568064
8.2659193
5.862794
5.255081
4.8076733
4.5521156
4.3336087
4.1639931
4.0308536
3.9077784
3.8096502
3.7524042
3.7220625
3.7245898
3.7271185
3.7704778
3.793078
3.9238135
4.1599109
4.9750132
9.0126472
87.240957
30888787
4031777.9