/*--------------------------------*- C++ -*----------------------------------*\
| =========                 |                                                 |
| \\      /  F ield         | OpenFOAM: The Open Source CFD Toolbox           |
|  \\    /   O peration     | Version:  2212                                  |
|   \\  /    A nd           | Website:  www.openfoam.com                      |
|    \\/     M anipulation  |                                                 |
\*---------------------------------------------------------------------------*/
FoamFile
{
    version     2.0;
    format      ascii;
    arch        "LSB;label=32;scalar=64";
    class       volScalarField;
    location    "0";
    object      V;
}
// * * * * * * * * * * * * * * * * * * * * * * * * * * * * * * * * * * * * * //

dimensions      [0 3 0 0 0 0 0];

internalField   nonuniform List<scalar> 
3584
(
36057.733
23287.449
20841.561
13865.876
13624.676
12034.018
6990.8273
8795.9375
7870.2877
6947.4286
3198.8211
5144.836
5145.0037
4543.8096
4010.8192
1711.595
2404.6713
3321.8256
2971.9843
2623.1433
2315.5178
1245.1553
990.51446
1894.4942
1943.3215
1715.8713
1514.3508
1336.807
1138.9335
534.9684
801.41148
1254.5853
1122.5735
990.57335
874.25336
771.77928
1135.4079
428.09812
298.39514
691.34568
734.28001
648.1237
571.85592
504.72305
445.57399
1154.1507
414.63421
176.39798
258.82374
473.97399
424.17683
374.15775
330.13426
291.38842
257.24558
1177.1833
420.16016
157.42073
91.22177
249.82694
277.59905
244.89996
215.9956
190.58932
168.22612
148.5172
1201.9243
428.72651
157.77476
63.39516
81.806807
179.18007
160.36796
141.37508
124.69159
110.02953
97.121589
85.744472
1228.2371
438.04928
160.8524
61.145061
29.988583
89.557657
105.03367
92.586547
81.610437
71.983387
63.521635
56.071073
49.503485
1256.244
447.95023
164.34755
62.103416
24.64307
25.929062
67.820146
60.678461
53.445123
47.11059
41.555613
36.67205
32.37147
28.580224
1286.0999
458.4635
168.05922
63.402683
24.657116
10.956328
32.069621
39.788516
35.029772
30.849789
27.195274
23.989911
21.171391
18.689008
16.500445
1317.9772
469.64225
171.99017
64.790283
25.124518
10.092015
8.5507914
25.728984
22.985399
20.218859
17.807152
15.698939
13.849322
12.222613
10.789724
9.526332
1352.069
481.54502
176.15772
66.255926
25.641962
10.221889
4.3842129
11.635635
15.09862
13.267917
11.669579
10.278696
9.0625087
7.9951969
7.0563327
6.2292322
5.4999133
1388.5897
494.23717
180.58166
67.804712
26.187442
10.41325
4.27328
3.0316507
9.8037272
8.7214526
7.6569562
6.735191
5.9331209
5.2315174
4.6156231
4.073749
3.5963236
3.1753089
1427.778
507.79092
185.28334
69.443192
26.761844
10.615931
4.3390549
1.8611417
4.349669
5.7436943
5.0332895
4.4185883
3.8872765
3.4247572
3.0200051
2.6645983
2.3518494
2.0762662
1.8332267
1469.9007
522.28542
190.2865
71.178242
27.367277
10.828619
4.4141353
1.8576726
1.186303
3.7604108
3.3170869
2.9040316
2.5497967
2.2435846
1.9768674
1.743364
1.5382725
1.3577657
1.1986914
1.0583915
1515.2546
537.80852
195.61682
73.017422
28.00589
11.052002
4.4929309
1.8853116
0.82776796
1.686254
2.1927422
1.913712
1.6754037
1.4713903
1.2949145
1.1411056
1.0063954
0.8880449
0.7838631
0.6920408
0.61104972
1564.1699
554.4571
201.30248
74.96892
28.680106
11.286752
4.5755684
1.9150268
0.83205862
0.52953377
1.4523993
1.2658694
1.1037366
0.96656458
0.84908651
0.74737822
0.65867987
0.58096421
0.51266852
0.4525386
0.39953616
0.35278226
1617.0134
572.33751
207.37435
77.041676
29.392555
11.533701
4.6622967
1.9462353
0.84292034
0.38802488
0.67366464
0.84131523
0.72993265
0.63652833
0.5576253
0.48997837
0.43136036
0.38020971
0.33537466
0.29596368
0.2612589
0.23066434
0.20367465
1674.1915
591.56693
213.86607
79.245334
30.146046
11.793758
4.753435
1.9790205
0.85463173
0.38902133
0.25169776
0.56310769
0.48537703
0.42075301
0.36708107
0.32170272
0.28274984
0.24896615
0.2194685
0.19360259
0.17085994
0.15082959
0.13316953
0.11758914
1736.1539
612.27367
220.81433
81.590444
30.943681
12.067863
4.8493057
2.0134958
0.86711171
0.39201478
0.1951401
0.27332509
0.32505316
0.27965722
0.24251009
0.21169205
0.18559547
0.16316549
0.14369468
0.12668386
0.11176149
0.098637513
0.087076724
0.076882814
0.067888689
634.59841
1803.3954
228.25899
84.088543
31.788872
12.357118
4.9502676
2.0497766
0.88036376
0.39554928
0.19466854
0.1144704
0.22028404
0.18733746
0.16106579
0.139772
0.12208065
0.10707317
0.094157429
0.082935637
0.073125776
0.064516859
0.05694348
0.050271005
0.044386784
0.039194727
236.24348
658.69387
1876.4577
86.752007
32.685294
12.662704
5.0567121
2.0879851
0.89438483
0.39962163
0.19400744
0.098700024
0.10970591
0.12678903
0.10780754
0.092753114
0.08055764
0.070402722
0.061772376
0.054335172
0.04786762
0.042210427
0.037243826
0.032873498
0.029022385
0.025625839
0.02262861
89.594297
244.81462
684.72576
1955.9297
33.637039
12.985898
5.1690528
2.1282473
0.90916707
0.40419427
0.19302385
0.098994674
0.053127695
0.087302509
0.072955957
0.062011966
0.053411726
0.046429343
0.040600596
0.035637575
0.031355065
0.027627563
0.024365148
0.02149985
0.018977886
0.016755161
0.014794576
0.013064358
34.648433
92.630111
254.02305
712.87211
2042.445
13.328124
5.2877327
2.1706836
0.92469609
0.40920034
0.19213351
0.099194702
0.049669061
0.04474185
0.050086505
0.04190888
0.035664604
0.030756679
0.026759508
0.023413994
0.020559957
0.018093994
0.015945692
0.014064308
0.012411279
0.010955943
0.0096730668
0.0085413585
0.0075425524
13.690859
35.724288
95.875104
263.92242
743.3223
2136.6752
5.4132075
2.215405
0.94094885
0.41455821
0.19167975
0.099149367
0.050135323
0.025232169
0.035132486
0.028751687
0.024061329
0.020510573
0.017710871
0.015422806
0.013502639
0.011861408
0.01044146
0.0092033125
0.00811835
0.0071646953
0.0063248719
0.0055844411
0.0049311863
0.0043546031
5.5459353
14.075699
36.869663
99.345948
274.56992
776.27424
2239.3204
2.2625009
0.95789316
0.42018656
0.19180951
0.098604851
0.050393372
0.024589659
0.018944081
0.020112664
0.016473078
0.013811979
0.011795297
0.010198555
0.0088889042
0.0077868469
0.0068430596
0.0060254296
0.0053118408
0.0046861608
0.0041359844
0.0036513519
0.0032240019
0.0028469239
0.0025140784
2.3120331
5.686352
14.484262
38.089887
103.06021
286.02416
811.93143
2351.0883
0.97548685
0.4260125
0.19249076
0.097292445
0.050328728
0.024881275
0.012338149
0.014416248
0.011505791
0.009432305
0.0079279493
0.0067831903
0.005872669
0.0051230947
0.0044906007
0.0039478839
0.0034770814
0.0030658151
0.0027049958
0.002387592
0.0021079276
0.0018612764
0.0016436158
0.0014514734
0.99367452
2.3640211
5.8348442
14.918147
39.390403
107.03569
298.34504
850.49468
2472.6635
0.43197545
0.1935977
0.095324658
0.049917849
0.025130421
0.012257676
0.008349027
0.0082419836
0.0065679622
0.0053995842
0.0045503841
0.0039007999
0.0033816632
0.0029526762
0.0025896852
0.0022776046
0.0020065117
0.0017694849
0.0015614068
0.0013782923
0.0012169079
0.0010745496
0.00094890947
0.0014514734
0.43802505
1.0123911
2.4184336
5.9917108
15.378845
40.776555
111.29016
311.5902
892.15359
2604.6674
0.19498866
0.093288776
0.049327144
0.025315134
0.01239031
0.0061559998
0.0060636846
0.0046925759
0.0037464663
0.00309067
0.0026116866
0.0022431996
0.0019472558
0.0017017603
0.0014934449
0.0013139905
0.0011578933
0.0010212871
0.00090129209
0.00079565094
0.00070252164
0.00062035752
0.00094890947
0.0025140784
0.19654722
0.44412164
1.0315608
2.4751836
6.1571241
15.867625
42.253265
115.83993
325.8118
937.07144
2747.5999
0.091753006
0.048812784
0.02540916
0.01249835
0.0061658404
0.0038194238
0.0034594984
0.0026652511
0.0021363459
0.0017689245
0.0014989271
0.0012899609
0.0011212782
0.00098079906
0.0008612538
0.00075806432
0.00066818293
0.00058945247
0.00052025356
0.00045930784
0.00040556619
0.00062035752
0.0016436158
0.0043546031
0.090881204
0.19819204
0.45023342
1.0511008
2.5341226
6.3310868
16.38539
43.824611
120.69885
341.05223
985.36731
2901.761
0.048371626
0.025370297
0.012573367
0.006222748
0.0031124861
0.0026232522
0.0019571887
0.0015123709
0.0012179615
0.0010123574
0.00086025319
0.00074178706
0.00064565616
0.00056527633
0.00049667555
0.00043734057
0.00038558685
0.00034021211
0.00030030642
0.00026514604
0.00040556619
0.0010745496
0.0028469239
0.0075425524
0.047625977
0.090544365
0.19987296
0.45633596
1.0709251
2.5950425
6.5133971
16.932521
45.493306
125.87648
357.33687
1037.0918
3067.164
0.025125695
0.012608526
0.0062642369
0.0031262432
0.0018046438
0.0014915202
0.001104238
0.0008577545
0.00069426073
0.00057933104
0.00049369418
0.00042655597
0.00037178066
0.00032579214
0.00028642706
0.00025230939
0.00022250975
0.00019635899
0.00017334613
0.00026514604
0.00070252164
0.0018612764
0.0049311863
0.013064359
0.024588607
0.04626113
0.090550327
0.20156195
0.46241139
1.090948
2.6576849
6.7036248
17.50872
47.26011
131.37589
374.66793
1092.2022
3243.4459
0.012599241
0.0062863967
0.0031484859
0.0015878469
0.0011669955
0.00083691182
0.00062223277
0.00048630221
0.0003956777
0.00033150312
0.00028331886
0.00024528257
0.0002140769
0.00018776706
0.00016517907
0.00014556165
0.00012840321
0.00011333181
0.00017334613
0.00045930783
0.0012169079
0.0032240019
0.0085413592
0.022628609
0.012543812
0.023799702
0.044587178
0.090750445
0.20324481
0.46844886
1.1110913
2.7217544
6.9011053
18.11289
49.123258
137.19173
393.01605
1150.5338
3429.7662
0.0062868592
0.0031609085
0.0015952906
0.00087551916
0.00066140582
0.00046817294
0.00035034286
0.00027561348
0.00022547044
0.00018967743
0.00016258423
0.00014104288
0.00012326797
0.00010821745
9.5256721e-05
8.3977013e-05
7.4097355e-05
0.00011333181
0.00030030642
0.00079565094
0.0021079276
0.0055844415
0.014794576
0.039194726
0.0062650136
0.012443448
0.023067527
0.043218132
0.091053333
0.20491637
0.47444373
1.1312867
2.7869396
7.1049656
18.743056
51.077927
143.3079
412.31219
1211.7765
3624.7361
0.0031621056
0.0016022108
0.00081493356
0.00053139689
0.00036726094
0.0002614445
0.00019712047
0.00015615129
0.00012845917
0.0001085201
9.3296767e-05
8.1101585e-05
7.0978721e-05
6.2369778e-05
5.4933325e-05
4.844777e-05
7.4097355e-05
0.00019635899
0.00052025357
0.0013782923
0.0036513522
0.0096730661
0.025625839
0.067888689
0.0031518479
0.0062222843
0.012300312
0.022673818
0.042373239
0.091408762
0.20657647
0.48039769
1.1514835
2.8529342
7.3141671
19.396374
53.115969
149.696
432.4436
1275.455
3826.3906
0.0016030574
0.00081782422
0.00043359736
0.00030155504
0.00020329269
0.00014580298
0.00011083364
8.8437639e-05
7.3175582e-05
6.2082692e-05
5.353524e-05
4.6633844e-05
4.0869895e-05
3.594596e-05
3.1679319e-05
4.844777e-05
0.00012840321
0.00034021211
0.00090129209
0.002387592
0.0063248717
0.016755162
0.044386783
0.11758913
0.0015977403
0.0031310774
0.0061616697
0.012111993
0.022547335
0.041934669
0.091791215
0.20822875
0.48631838
1.1716504
2.919462
7.5275803
20.069258
55.225838
156.31464
453.24802
1340.9271
4032.1868
0.00081840284
0.00041995185
0.00024609129
0.00016521665
0.00011224831
8.120683e-05
6.2273437e-05
5.0069039e-05
4.1676445e-05
3.5513709e-05
3.0718339e-05
2.6814313e-05
2.3532945e-05
2.0716911e-05
3.1679318e-05
8.3977013e-05
0.00022250975
0.00058945246
0.0015614068
0.0041359846
0.010955943
0.029022385
0.076882809
0.20367465
0.00081547245
0.001586884
0.0031016453
0.0060872098
0.011859408
0.022389917
0.041740235
0.092189449
0.20987909
0.49221954
1.1917793
2.9863006
7.7440872
20.757564
57.392914
163.10955
474.5172
1407.3881
4239.077
0.00042026118
0.00021858635
0.00014079078
9.0299899e-05
6.1837184e-05
4.5168552e-05
3.4963097e-05
2.8335812e-05
2.3732107e-05
2.031356e-05
1.7625454e-05
1.5417917e-05
1.3550223e-05
2.0716911e-05
5.4933325e-05
0.00014556165
0.00038558685
0.001021287
0.002704996
0.007164695
0.018977886
0.050271005
0.13316953
0.35278227
0.00041856708
0.0008094563
0.0015716492
0.0030658933
0.0060031522
0.011495269
0.021908272
0.041680832
0.09259929
0.21153546
0.49811998
1.2118848
3.0533017
7.9626554
21.456897
59.600181
170.01483
495.99853
1473.8917
4443.6306
0.00021679488
0.0001161825
7.5948267e-05
4.9172178e-05
3.3986e-05
2.5087549e-05
1.961436e-05
1.6029857e-05
1.3511419e-05
1.1618226e-05
1.0112704e-05
8.86499e-06
1.3550223e-05
3.594596e-05
9.5256721e-05
0.00025230939
0.00066818294
0.001769485
0.0046861606
0.012411279
0.032873498
0.08707672
0.23066434
0.61104972
0.00021576729
0.00041506339
0.0008012427
0.0015536242
0.0030263328
0.0059134603
0.010982485
0.021084799
0.041695363
0.093020857
0.21320736
0.50404346
1.2320059
3.1203975
8.1824525
22.162917
61.828824
176.95512
517.40421
1539.3892
4642.1705
0.00011221894
6.637779e-05
4.0889626e-05
2.6675027e-05
1.8631395e-05
1.3912689e-05
1.0994503e-05
9.0645044e-06
7.6909923e-06
6.6444154e-06
5.8020109e-06
8.86499e-06
2.3532945e-05
6.2369778e-05
0.00016517907
0.00043734057
0.0011578933
0.0030658151
0.00811835
0.021499849
0.056943478
0.1508296
0.39953616
1.0583915
0.00011155958
0.00021440389
0.00041350451
0.00079672811
0.0015385849
0.0029876177
0.0058224061
0.010423222
0.020250021
0.041751772
0.093456548
0.21490574
0.51001863
1.2522029
3.187617
8.4028817
22.871546
64.059195
183.84754
538.41891
1602.7621
4830.937
5.7798249e-05
3.5495477e-05
2.1894877e-05
1.4410589e-05
1.0185227e-05
7.7026316e-06
6.1573295e-06
5.1235538e-06
4.377016e-06
3.7995848e-06
5.8020109e-06
1.5417917e-05
4.0869895e-05
0.00010821745
0.00028642706
0.00075806429
0.0020065117
0.0053118408
0.014064309
0.037243828
0.098637515
0.2612589
0.6920408
1.8332267
5.7587741e-05
0.00011279488
0.00022273539
0.00043647412
0.00084527551
0.001596325
0.0029948445
0.0057483988
0.010038391
0.019660452
0.04183377
0.093910145
0.21664298
0.51607879
1.2725573
3.2550722
8.6236368
23.579211
66.270986
190.60363
558.70814
1662.8601
5006.2405
3.0124445e-05
1.8770184e-05
1.1651125e-05
7.7483618e-06
5.5505681e-06
4.2567583e-06
3.4450883e-06
2.8946985e-06
2.4904956e-06
3.7995848e-06
1.0112704e-05
2.6814313e-05
7.0978721e-05
0.00018776708
0.00049667553
0.0013139905
0.0034770814
0.0092033132
0.024365149
0.064516859
0.17085994
0.45253859
1.1986914
3.1753089
2.973418e-05
6.1822521e-05
0.00012339181
0.00024380459
0.00047512206
0.00091495114
0.0017962111
0.0034018003
0.0059369736
0.0099686657
0.019319534
0.041933533
0.094386229
0.21843286
0.52226176
1.2931692
3.3229645
8.8446723
24.282686
68.443352
197.12941
577.92508
1718.5408
5164.6209
1.6216785e-05
9.8469587e-06
6.1552473e-06
4.1436449e-06
3.014258e-06
2.3477886e-06
1.9256319e-06
1.6346756e-06
2.4904956e-06
6.6444154e-06
1.7625454e-05
4.6633844e-05
0.00012326798
0.00032579213
0.00086125382
0.0022776046
0.0060254301
0.015945691
0.042210426
0.11176149
0.29596368
0.78386314
2.0762662
5.4999133
1.5843282e-05
3.3066655e-05
6.6717688e-05
0.00013388591
0.0002673574
0.00053095269
0.0010445115
0.0019728932
0.0036584983
0.0070790217
0.010778022
0.01915541
0.042048238
0.094890062
0.22029057
0.52861014
1.3141553
3.39156
9.066144
24.978903
70.553835
203.32487
595.71517
1768.7032
5303.0068
8.7693318e-06
5.1137053e-06
3.2238762e-06
2.2019729e-06
1.6304277e-06
1.2921029e-06
1.0751824e-06
1.6346756e-06
4.377016e-06
1.1618226e-05
3.0718339e-05
8.1101586e-05
0.00021407689
0.00056527632
0.0014934449
0.0039478839
0.010441459
0.027627562
0.073125776
0.19360259
0.51266852
1.3577657
3.5963236
9.5263326
8.522498e-06
1.7408675e-05
3.5633328e-05
7.2364014e-05
0.00014601226
0.00029269656
0.00058202736
0.0011447419
0.0022177225
0.0041300175
0.0072185204
0.014378582
0.019133991
0.042178712
0.095427529
0.22223292
0.53517097
1.3356485
3.4611785
9.288304
25.664397
72.576954
209.08188
611.72207
1812.3397
5418.9636
4.5460556e-06
2.6225662e-06
1.6709409e-06
1.161454e-06
8.7793264e-07
7.0941271e-07
1.0751824e-06
2.8946984e-06
7.6909923e-06
2.031356e-05
5.353524e-05
0.00014104287
0.00037178065
0.00098079908
0.0025896852
0.0068430593
0.018093994
0.047867621
0.12668386
0.33537466
0.8880449
2.3518494
6.229232
16.500444
4.4065242e-06
9.0783104e-06
1.8891245e-05
3.8876359e-05
7.9302483e-05
0.00016042783
0.00032151567
0.00063682685
0.0012424528
0.0023783087
0.0044459966
0.0077267698
0.016040455
0.019262141
0.042329629
0.096005518
0.22427854
0.54199702
1.3577962
3.5321808
9.5113347
26.33444
74.481999
214.28339
625.60216
1848.6195
5511.0254
2.2567121e-06
1.3237732e-06
8.5485869e-07
6.0716925e-07
4.7029041e-07
7.0941271e-07
1.9256319e-06
5.1235538e-06
1.3511419e-05
3.5513709e-05
9.3296764e-05
0.00024528257
0.00064565617
0.0017017603
0.0044906005
0.011861409
0.031355065
0.082935636
0.2194685
0.58096421
1.5382725
4.0737485
10.789724
28.580225
2.1836099e-06
4.6793466e-06
9.9337884e-06
2.0761266e-05
4.2872835e-05
8.7591256e-05
0.00017695038
0.00035276568
0.00069193158
0.0013307773
0.0025017619
0.0045838731
0.00804154
0.012699528
0.019564545
0.04251129
0.096632808
0.22644853
0.54914656
1.3807597
3.6049258
9.7351027
26.981994
76.231163
218.80567
637.05367
1877.0221
5579.2516
1.0995211e-06
6.5442107e-07
4.3015571e-07
3.1396436e-07
4.7029041e-07
1.2921029e-06
3.4450883e-06
9.0645044e-06
2.3732108e-05
6.2082692e-05
0.00016258423
0.00042655598
0.0011212782
0.002952676
0.0077868471
0.020559956
0.054335172
0.14369468
0.38020971
1.0063954
2.6645982
7.0563331
18.689009
49.503486
1.0608912e-06
2.3771712e-06
5.1733729e-06
1.1013504e-05
2.3068023e-05
4.765475e-05
9.7115389e-05
0.00019493637
0.00038438243
0.00074223745
0.0013996657
0.0025731763
0.0046066575
0.0074507344
0.010254978
0.020132039
0.042744454
0.097322012
0.22876789
0.55668524
1.4047148
3.6797547
9.9588281
27.596489
77.778697
222.52856
645.87109
1897.5566
5625.8592
5.2243012e-07
3.1443257e-07
2.1176516e-07
3.1396437e-07
8.7793263e-07
2.3477886e-06
6.1573293e-06
1.6029858e-05
4.1676445e-05
0.0001085201
0.00028331887
0.00074178712
0.0019472558
0.0051230949
0.013502639
0.035637575
0.094157429
0.24896615
0.65867987
1.7433639
4.6156229
12.222613
32.371469
85.744471
5.0187635e-07
1.18522e-06
2.6625537e-06
5.797026e-06
1.2345787e-05
2.5829395e-05
5.3153217e-05
0.0001074942
0.0002131628
0.00041331286
0.0007815799
0.0014394191
0.0025825886
0.0045143843
0.007279081
0.0099794751
0.021059465
0.043072321
0.09809451
0.23126879
0.56469017
1.4298548
3.7569302
10.180661
28.162695
79.073699
225.35848
652.03959
1911.0332
5655.3931
2.3806998e-07
1.4495219e-07
2.1176516e-07
6.0716924e-07
1.6304277e-06
4.2567584e-06
1.0994504e-05
2.8335811e-05
7.317558e-05
0.00018967743
0.00049369418
0.0012899608
0.0033816633
0.0088889042
0.023413994
0.061772376
0.16316549
0.43136036
1.1411055
3.0200051
7.9951971
21.171391
56.071072
148.5172
2.2703693e-07
5.7624019e-07
1.3500707e-06
3.0228396e-06
6.5666385e-06
1.3940863e-05
2.9005265e-05
5.9146965e-05
0.0001180163
0.00022984954
0.00043594278
0.00080419311
0.0014438203
0.0025291544
0.0043147459
0.0065359077
0.010309688
0.022143297
0.043588319
0.098991575
0.23399895
0.57325967
1.4564034
3.8365906
10.397206
28.660849
80.068996
227.27111
655.85316
1919.1447
5673.1657
1.0104692e-07
1.4495219e-07
4.301557e-07
1.161454e-06
3.0142583e-06
7.7026321e-06
1.961436e-05
5.006904e-05
0.00012845916
0.00033150313
0.00086025316
0.0022431996
0.0058726689
0.015422806
0.040600596
0.10707317
0.28274984
0.74737826
1.9768674
5.2315174
13.849322
36.672049
97.121589
257.24558
9.5215184e-08
2.7032597e-07
6.7147475e-07
1.558202e-06
3.4674413e-06
7.4880997e-06
1.5775459e-05
3.2467465e-05
6.5224144e-05
0.00012765043
0.00024289913
0.00044891312
0.00080641754
0.0014123249
0.0024216901
0.0038257861
0.0058345442
0.010983546
0.022860715
0.0444937
0.1001039
0.23704426
0.58254037
1.4846572
3.9187409
10.603319
29.069217
80.741095
228.36768
657.95916
1923.8801
5682.1186
1.0104735e-07
3.1443256e-07
8.5485869e-07
2.2019731e-06
5.5505681e-06
1.3912689e-05
3.4963098e-05
8.8437631e-05
0.00022547045
0.00057933102
0.0014989272
0.0039007998
0.010198555
0.026759508
0.070402724
0.18559547
0.48997835
1.2949144
3.4247572
9.0625089
23.98991
63.521635
168.22612
445.57399
1.2009914e-07
3.2534618e-07
7.9170122e-07
1.815024e-06
3.9997317e-06
8.5479037e-06
1.7775506e-05
3.5977909e-05
7.0788293e-05
0.00013518291
0.00025036546
0.00045009748
0.0007879336
0.0013502891
0.0022752635
0.0036099595
0.0058501584
0.011672855
0.023161841
0.04615988
0.10164557
0.24058913
0.59280816
1.515129
4.0034503
10.792872
29.372357
81.118619
228.90072
659.12576
1926.3044
5682.1186
9.521547e-08
2.3807113e-07
6.5442107e-07
1.6709409e-06
4.1436449e-06
1.0185227e-05
2.508755e-05
6.227343e-05
0.0001561513
0.00039567768
0.0010123574
0.0026116866
0.0067831903
0.017710871
0.046429344
0.12208065
0.32170271
0.84908646
2.2435848
5.933121
15.698938
41.555613
110.02953
291.38842
771.77926
1.5187861e-07
3.948083e-07
9.4009487e-07
2.1225387e-06
4.6119692e-06
9.7032916e-06
1.980342e-05
3.9191979e-05
7.5137979e-05
0.00013948815
0.0002510175
0.00043931101
0.00075188183
0.0012671294
0.00210111
0.0031243398
0.0059394142
0.012157636
0.023571826
0.048886401
0.10412349
0.24508204
0.60469488
1.5489795
4.0917288
10.961922
29.575095
81.298692
229.17668
659.74685
1926.3043
5673.1656
1.2009914e-07
2.2703772e-07
5.2243213e-07
1.3237732e-06
3.2238763e-06
7.7483616e-06
1.8631396e-05
4.5168548e-05
0.00011083365
0.00027561347
0.00069426076
0.0017689245
0.004550384
0.011795297
0.030756679
0.080557638
0.21169206
0.5576253
1.4713904
3.8872765
10.278696
27.195275
71.983387
190.58932
504.72309
1336.807
1.9200158e-07
4.8051676e-07
1.1177753e-06
2.4762658e-06
5.2794583e-06
1.0874789e-05
2.166009e-05
4.1704263e-05
7.7622703e-05
0.00013985453
0.0002447486
0.00041837731
0.00070380528
0.0011733578
0.0018234942
0.0029740291
0.0060349498
0.012500022
0.02467389
0.052038039
0.1085725
0.2516327
0.6197834
1.5891524
4.1877888
11.114582
29.711556
81.40321
229.34068
659.74683
1923.8802
5655.3938
1.5187861e-07
2.7032597e-07
5.0187759e-07
1.0995213e-06
2.6225662e-06
6.1552473e-06
1.4410589e-05
3.3986e-05
8.1206834e-05
0.00019712047
0.00048630222
0.0012179615
0.0030906699
0.0079279493
0.020510573
0.053411726
0.13977201
0.36708105
0.96656461
2.5497967
6.7351909
17.807153
47.110588
124.69159
330.13429
874.25331
2315.5178
2.4153502e-07
5.8312912e-07
1.3220834e-06
2.8618685e-06
5.9562542e-06
1.1947348e-05
2.3111286e-05
4.3138911e-05
7.7831073e-05
0.00013622049
0.00023261454
0.00039051668
0.00064997977
0.0010779687
0.0017021639
0.0029997777
0.0061324445
0.012789691
0.026351177
0.054809101
0.11613546
0.26266267
0.64183598
1.6426018
4.3021549
11.264582
29.822434
81.477055
229.34068
659.1258
1919.1447
5625.8595
1.9200158e-07
3.2534618e-07
5.7624019e-07
1.06089e-06
2.2566908e-06
5.1137054e-06
1.1651126e-05
2.6675029e-05
6.1837184e-05
0.00014580298
0.00035034285
0.00085775449
0.0021363459
0.0053995842
0.013811979
0.035664604
0.092753118
0.24251007
0.63652834
1.6754037
4.4185882
11.669579
30.849788
81.610437
215.99559
571.85588
1514.3508
4010.8192
3.0083251e-07
7.0119054e-07
1.5448276e-06
3.252851e-06
6.5759006e-06
1.2785685e-05
2.3939831e-05
4.3258281e-05
7.5727604e-05
0.00012919647
0.00021647878
0.0003593835
0.00059588747
0.00096516278
0.0015267818
0.0030363125
0.0062311189
0.013063392
0.027780183
0.05807383
0.12602248
0.28157918
0.67789558
1.7219467
4.4485997
11.415419
29.90174
81.477055
229.1767
657.95913
1911.0331
5579.2512
2.4153502e-07
3.948083e-07
6.7147475e-07
1.18522e-06
2.1835879e-06
4.5459395e-06
9.8469587e-06
2.1894876e-05
4.9172176e-05
0.00011224831
0.0002614445
0.00062223277
0.0015123709
0.0037464663
0.009432305
0.024061329
0.062011964
0.16106579
0.42075302
1.1037365
2.9040316
7.6569562
20.218859
53.445123
141.37508
374.15775
990.57335
2623.1433
6947.4286
3.6900311e-07
8.2989265e-07
1.7707042e-06
3.6107604e-06
7.0601715e-06
1.3264253e-05
2.4008435e-05
4.2041838e-05
7.1665208e-05
0.00011985973
0.00019845672
0.00032819943
0.00054529739
0.00088428488
0.001520841
0.0030740297
0.0063301725
0.013329702
0.028754721
0.0621192
0.13635688
0.30856075
0.73460612
1.838272
4.6195572
11.524456
29.901739
81.403211
228.90073
655.85321
1897.5563
5511.0262
3.0083251e-07
4.8051676e-07
7.9170122e-07
1.3500707e-06
2.3771712e-06
4.4064128e-06
8.7691872e-06
1.8770183e-05
4.0889626e-05
9.0299897e-05
0.0002032927
0.00046817294
0.001104238
0.0026652511
0.0065679622
0.016473078
0.041908875
0.10780754
0.27965721
0.72993264
1.913712
5.0332895
13.267917
35.029772
92.586544
244.89996
648.1237
1715.8713
4543.8096
12034.018
4.4334093e-07
9.6035809e-07
1.9774696e-06
3.8905058e-06
7.336634e-06
1.3303809e-05
2.3305288e-05
3.9693448e-05
6.6266219e-05
0.00010943274
0.00018041609
0.00029925579
0.0005001306
0.00079921014
0.0015345908
0.0031120268
0.0064285159
0.013587955
0.029502054
0.065434443
0.14668132
0.33779974
0.80607535
1.9758299
4.7496845
11.524457
29.822434
81.298692
228.36767
652.03969
1877.023
5418.9631
3.6900311e-07
5.8312912e-07
9.4009487e-07
1.558202e-06
2.6625537e-06
4.6793466e-06
8.5222448e-06
1.6217042e-05
3.5495474e-05
7.5948267e-05
0.00016521665
0.00036726093
0.00083691182
0.0019571887
0.0046925759
0.011505791
0.028751686
0.072955964
0.18733745
0.48537704
1.2658694
3.3170869
8.7214526
22.985399
60.678459
160.36796
424.17683
1122.5735
2971.9843
7870.2877
20841.561
5.1873455e-07
1.079866e-06
2.1391063e-06
4.0502321e-06
7.3594454e-06
1.2897463e-05
2.194817e-05
3.657281e-05
6.0236873e-05
9.899487e-05
0.00016369457
0.00027380226
0.00044707107
0.00077499923
0.0015494582
0.0031497879
0.006524706
0.01383447
0.030147694
0.067602031
0.15492478
0.36279175
0.87092654
2.0752711
4.7496845
11.415419
29.711554
81.118613
227.27111
645.87128
1848.6193
5303.0081
4.4334093e-07
7.0119054e-07
1.1177753e-06
1.815024e-06
3.0228396e-06
5.1733729e-06
9.0783104e-06
1.5843189e-05
3.0124723e-05
6.6377721e-05
0.00014079072
0.00030155502
0.00066140582
0.0014915202
0.0034594984
0.0082419838
0.020112665
0.050086508
0.12678903
0.32505316
0.84131522
2.1927422
5.7436943
15.09862
39.788515
105.03367
277.59905
734.28003
1943.3215
5145.0037
13624.676
36057.733
5.8773027e-07
1.173263e-06
2.2313721e-06
4.0634069e-06
7.1246533e-06
1.21133e-05
2.014483e-05
3.3087835e-05
5.4200657e-05
8.9319989e-05
0.00014904552
0.00025233602
0.00042084628
0.00077922246
0.0015642519
0.0031867027
0.0066169243
0.014064081
0.030716206
0.069105907
0.1599164
0.37891614
0.9083237
2.075271
4.6195572
11.264581
29.575092
80.741102
225.3585
637.05352
1812.3398
5164.6203
5.1873455e-07
8.2989265e-07
1.3220834e-06
2.1225387e-06
3.4674413e-06
5.797026e-06
9.9337884e-06
1.7408675e-05
2.9733864e-05
5.7798284e-05
0.00011618318
0.00024609137
0.00053139706
0.0011669958
0.0026232527
0.0060636855
0.014416249
0.035132486
0.087302508
0.22028404
0.56310765
1.4523992
3.7604109
9.8037271
25.728983
67.820146
179.18008
473.97401
1254.5853
3321.8256
8795.9375
23287.449
6.4163172e-07
1.2265441e-06
2.2389716e-06
3.9278108e-06
6.6715869e-06
1.1071414e-05
1.8131007e-05
2.959856e-05
4.8604414e-05
8.0846851e-05
0.00013672851
0.00023019622
0.00039690342
0.00078500757
0.0015786571
0.0032220314
0.0067029938
0.014270599
0.031199094
0.070207567
0.1626226
0.38598747
0.90832363
1.9758298
4.4486
11.114582
29.372363
80.069008
222.52854
625.60226
1768.7031
5006.2405
5.8773027e-07
9.6035809e-07
1.5448276e-06
2.4762658e-06
3.9997317e-06
6.5666385e-06
1.1013504e-05
1.8891245e-05
3.3066664e-05
5.7587574e-05
0.00011221888
0.00021858658
0.0004335977
0.00087551969
0.0018046446
0.0038194272
0.0083490324
0.018944085
0.044741865
0.10970594
0.27332513
0.67366473
1.6862541
4.3496693
11.635635
32.069621
89.557666
249.82694
691.34569
1894.4942
5144.836
13865.876
6.7243266e-07
1.2309259e-06
2.1606028e-06
3.6660879e-06
6.069605e-06
9.9078475e-06
1.6114564e-05
2.6363039e-05
4.3701603e-05
7.3734239e-05
0.00012665762
0.00021817547
0.00039693354
0.00079068543
0.0015923703
0.0032549162
0.0067804535
0.01444724
0.031580591
0.070954768
0.16384774
0.38598748
0.87092641
1.838272
4.3021544
10.961923
29.069217
79.073682
218.80571
611.72205
1718.5408
4830.937
6.4163172e-07
1.079866e-06
1.7707042e-06
2.8618685e-06
4.6119692e-06
7.4880997e-06
1.2345787e-05
2.0761266e-05
3.5633328e-05
6.1822596e-05
0.00011155933
0.00021679487
0.00041995179
0.00081493458
0.0015878468
0.0031124815
0.0061560005
0.01233816
0.025232166
0.053127717
0.11447037
0.25169786
0.52953393
1.1863031
3.0316552
8.5507955
25.929054
81.806826
258.82371
801.41155
2404.6714
6990.8273
6.7496832e-07
1.1856407e-06
2.0094218e-06
3.3182795e-06
5.3973684e-06
8.7427508e-06
1.424456e-05
2.3527513e-05
3.9584918e-05
6.7946752e-05
0.00011835598
0.00020410579
0.00039908451
0.00079604802
0.0016050556
0.0032844156
0.0068466872
0.01458721
0.031845179
0.071335191
0.16384774
0.37891617
0.80607529
1.7219465
4.1877899
10.792872
28.660851
77.778712
214.28337
595.7152
1662.8605
4642.1719
6.7243266e-07
1.173263e-06
1.9774696e-06
3.252851e-06
5.2794583e-06
8.5479037e-06
1.3940863e-05
2.3068023e-05
3.8876359e-05
6.6717688e-05
0.00011279467
0.00021576707
0.00042026115
0.00081782199
0.0015952935
0.0031262432
0.006165836
0.012257676
0.024589645
0.049669046
0.098700083
0.19514
0.38802488
0.8277681
1.8611395
4.3842148
10.956342
29.988571
91.221812
298.3951
990.51453
3198.8212
6.488362e-07
1.0982668e-06
1.8085413e-06
2.9299077e-06
4.7242696e-06
7.6622056e-06
1.2605449e-05
2.1145509e-05
3.623669e-05
6.3335101e-05
0.00011137648
0.00020243605
0.00040118891
0.00080095888
0.0016163572
0.0033095529
0.0068991328
0.014684425
0.031980774
0.071335191
0.1626226
0.36279174
0.7346061
1.6426017
4.091728
10.603321
28.162695
76.231151
209.08191
577.92528
1602.7626
4443.6305
6.7496832e-07
1.2265441e-06
2.1391063e-06
3.6107604e-06
5.9562542e-06
9.7032916e-06
1.5775459e-05
2.5829395e-05
4.2872835e-05
7.2364014e-05
0.00012339186
0.00021440381
0.00041856709
0.00081840281
0.0016022087
0.0031484859
0.0062227526
0.012390299
0.024881289
0.050135323
0.098994637
0.19466864
0.38902125
0.83205847
1.8576715
4.2732778
10.092001
24.64307
63.39516
176.39802
534.9684
1711.595
5.9842124e-07
9.8220322e-07
1.5841585e-06
2.5410272e-06
4.0999691e-06
6.7149394e-06
1.1228033e-05
1.9207178e-05
3.3575843e-05
5.9932005e-05
0.00010504185
0.00020316021
0.00040309236
0.00080528556
0.0016259211
0.0033293943
0.0069355309
0.014734277
0.031980774
0.070954768
0.1599164
0.33779975
0.67789546
1.5891525
4.0034507
10.397204
27.596484
74.482014
203.32487
558.70837
1539.3897
4239.0777
6.488362e-07
1.2309259e-06
2.2313721e-06
3.8905058e-06
6.5759006e-06
1.0874789e-05
1.7775506e-05
2.9005265e-05
4.765475e-05
7.9302483e-05
0.00013388591
0.00022273521
0.00041506336
0.00081547297
0.0016030597
0.0031609119
0.0062642349
0.012498368
0.025130421