/*--------------------------------*- C++ -*----------------------------------*\
| =========                 |                                                 |
| \\      /  F ield         | OpenFOAM: The Open Source CFD Toolbox           |
|  \\    /   O peration     | Version:  2212                                  |
|   \\  /    A nd           | Website:  www.openfoam.com                      |
|    \\/     M anipulation  |                                                 |
\*---------------------------------------------------------------------------*/
FoamFile
{
    version     2.0;
    format      ascii;
    arch        "LSB;label=32;scalar=64";
    class       volScalarField;
    location    "1";
    object      k;
}
// * * * * * * * * * * * * * * * * * * * * * * * * * * * * * * * * * * * * * //

dimensions      [0 2 -2 0 0 0 0];

internalField   nonuniform List<scalar> 
10368
(
0.0140925
0.0148414
0.0146051
0.0143466
0.0140978
0.0138254
0.0134739
0.0129681
0.0122296
0.0111953
0.00983395
0.00817896
0.00630641
0.00435991
0.002534
0.00100653
0.000249375
0.000160098
0.000133702
0.000838689
0.00563233
0.0190055
0.0401993
0.0568447
0.0592878
0.0652049
0.0729604
0.0728416
0.0693762
0.0665936
0.0644921
0.0628448
0.061818
0.0612482
0.060381
0.0593393
0.0581753
0.0570026
0.0556415
0.0542429
0.0523741
0.0505623
0.048835
0.0469032
0.04497
0.0427241
0.0405193
0.0378876
0.0344566
0.0311662
0.0278325
0.0243608
0.0204004
0.0153773
0.0104147
0.00670105
0.00316267
0.000337609
0.000603162
0.00108255
0.000591255
0.000353412
0.000245431
0.000169069
0.000125674
9.2279e-05
7.07967e-05
5.5527e-05
4.55962e-05
3.74915e-05
3.26145e-05
3.11511e-05
3.04962e-05
2.90499e-05
2.75222e-05
2.6119e-05
2.56331e-05
2.62444e-05
2.73883e-05
2.85093e-05
2.94098e-05
3.04699e-05
3.17237e-05
3.33149e-05
3.50347e-05
3.70607e-05
3.91182e-05
4.14764e-05
4.38497e-05
4.63476e-05
4.95761e-05
5.311e-05
5.74169e-05
6.27061e-05
6.82747e-05
7.39584e-05
8.05195e-05
8.77923e-05
9.68715e-05
0.00010636
0.0001158
0.00012623
0.000137323
0.000150012
0.000164161
0.000179452
0.000195496
0.000211572
0.0002279
0.000245219
0.000263319
0.000283048
0.000304159
0.000325803
0.000347829
0.000368837
0.000388831
0.000409067
0.00043086
0.000451664
0.000469128
0.000482952
0.000495994
0.000507562
0.000517726
0.000526854
0.000536498
0.0005488
0.000563158
0.000580992
0.000606894
0.000654029
0.000713952
0.000761332
0.000796699
0.000840099
0.000894136
0.000896041
0.000856711
0.000884158
0.000940681
0.000971868
0.00100396
0.00103169
0.00105961
0.00108659
0.0011137
0.00114065
0.00116771
0.00119423
0.00122062
0.00124501
0.00126792
0.00129104
0.00131505
0.00133488
0.00134561
0.0013372
0.00130603
0.00125254
0.00117231
0.00106096
0.000914352
0.000736033
0.000536584
0.000336727
0.000166607
5.85027e-05
9.23714e-05
0.000287057
0.000650046
0.00117226
0.0018158
0.00252761
0.00325548
0.0039622
0.00462972
0.00525137
0.00582514
0.00635425
0.00683845
0.00728882
0.00770942
0.00809143
0.00843993
0.00873476
0.00902339
0.00925263
0.00951894
0.00970737
0.00989882
0.0102123
0.0095171
0.0104054
0.0102306
0.0100201
0.00981173
0.00959156
0.00931944
0.00894089
0.00840376
0.00767029
0.00672728
0.00561429
0.0043883
0.0031628
0.00200913
0.00107953
0.000407947
0.000119122
0.000305935
0.000993585
0.00267132
0.00767251
0.0159575
0.0275171
0.0365804
0.0460571
0.0544175
0.0588779
0.0596167
0.0584743
0.0569324
0.0554483
0.0542859
0.0535156
0.052666
0.0517626
0.0506951
0.0496089
0.0483266
0.0470377
0.0454186
0.0438627
0.0421944
0.0405429
0.0387916
0.0369745
0.0350992
0.0329983
0.030602
0.0281881
0.0256834
0.0230792
0.0202415
0.0168305
0.0136227
0.0105136
0.00707158
0.003378
0.00121739
0.000449531
0.000201368
0.00012764
8.23079e-05
5.01612e-05
3.32543e-05
2.26253e-05
1.58616e-05
1.14832e-05
9.00119e-06
7.29895e-06
6.44962e-06
6.16934e-06
6.13884e-06
5.99087e-06
5.84663e-06
5.74401e-06
5.80759e-06
6.08473e-06
6.48718e-06
6.92226e-06
7.35018e-06
7.83484e-06
8.39007e-06
9.04418e-06
9.76921e-06
1.05935e-05
1.14814e-05
1.24714e-05
1.35307e-05
1.46651e-05
1.59905e-05
1.74519e-05
1.91226e-05
2.10597e-05
2.31567e-05
2.53579e-05
2.77964e-05
3.04753e-05
3.35822e-05
3.69235e-05
4.03475e-05
4.40491e-05
4.79957e-05
5.23635e-05
5.71704e-05
6.23614e-05
6.78379e-05
7.34542e-05
7.92147e-05
8.52924e-05
9.16779e-05
9.85281e-05
0.000105844
0.000113472
0.000121323
0.000129129
0.000136852
0.00014478
0.000153178
0.000161622
0.000169515
0.000176798
0.000183945
0.000191023
0.00019792
0.000204792
0.000211813
0.000219551
0.000227824
0.000236875
0.0002475
0.000262784
0.000284215
0.000303634
0.000318507
0.000335712
0.000357279
0.000369668
0.000364207
0.000371914
0.000398529
0.000413676
0.000431222
0.000447488
0.000464528
0.000482111
0.000500513
0.000520004
0.000540683
0.000562718
0.000586322
0.000611411
0.000638256
0.000668665
0.000706885
0.000750002
0.000796373
0.000841501
0.000881905
0.000920859
0.000962875
0.00100442
0.00104407
0.0010805
0.00111431
0.00114622
0.00117868
0.00121545
0.00126702
0.00135682
0.0014758
0.00161871
0.0017968
0.0020089
0.00224965
0.00251756
0.00280865
0.00311799
0.00343794
0.00376165
0.00407876
0.00438941
0.00468918
0.00496724
0.00522582
0.00544618
0.00566678
0.00584027
0.00604852
0.00618852
0.00634444
0.00659026
0.0560067
0.0618741
0.0608248
0.0595332
0.0582475
0.0568988
0.055247
0.0529664
0.0497515
0.0453868
0.0398048
0.0332626
0.0261018
0.0190154
0.0123312
0.00699942
0.00278326
0.000721435
0.00214052
0.00652958
0.0140211
0.0371842
0.0762874
0.143993
0.20813
0.271472
0.324516
0.357435
0.366726
0.361483
0.35254
0.343502
0.336136
0.331146
0.325885
0.320407
0.313846
0.307147
0.299198
0.291232
0.281327
0.271815
0.261372
0.251261
0.240403
0.229384
0.217877
0.205147
0.191066
0.176688
0.161666
0.146035
0.12917
0.109149
0.0905425
0.0713271
0.0494321
0.024876
0.00847176
0.0022303
0.000885851
0.000583577
0.000358206
0.00019797
0.00011703
7.25344e-05
4.44763e-05
2.77302e-05
1.95664e-05
1.53199e-05
1.40775e-05
1.3517e-05
1.39711e-05
1.43748e-05
1.48925e-05
1.55921e-05
1.65752e-05
1.80057e-05
1.98138e-05
2.18883e-05
2.41399e-05
2.66485e-05
2.94814e-05
3.26996e-05
3.63124e-05
4.03462e-05
4.4821e-05
4.97444e-05
5.51683e-05
6.10228e-05
6.7539e-05
7.47513e-05
8.27176e-05
9.16458e-05
0.000101475
0.000111961
0.000123301
0.000135691
0.000149388
0.000164407
0.000180091
0.000196814
0.00021467
0.000234003
0.000255085
0.000277841
0.00030194
0.000327047
0.000352968
0.000380217
0.000408947
0.000439442
0.000471968
0.000506263
0.000541822
0.000578109
0.000614836
0.000652832
0.000692716
0.000733974
0.000774605
0.000814489
0.00085418
0.000894891
0.000935721
0.000977437
0.00101973
0.00106459
0.00111129
0.00116015
0.00121231
0.00127705
0.00137435
0.00146966
0.00154362
0.0016266
0.00173105
0.00182144
0.00182171
0.00185056
0.00198999
0.00207035
0.00216767
0.00225999
0.00235788
0.00246081
0.0025697
0.00268688
0.00281281
0.00294938
0.0030978
0.00325938
0.00343558
0.0036381
0.00389791
0.0041986
0.00453309
0.00487827
0.00521201
0.00555822
0.00595518
0.00638113
0.0068297
0.00728743
0.00774765
0.00819412
0.00861368
0.00900052
0.00934954
0.00981559
0.0103233
0.0108429
0.0114978
0.0123344
0.0133673
0.0146242
0.0160942
0.0177476
0.0195296
0.0213858
0.0232394
0.0250799
0.0268702
0.028539
0.0300976
0.031428
0.0327664
0.0338165
0.0350862
0.0359297
0.0368884
0.0383875
0.215161
0.237066
0.233121
0.228253
0.223399
0.218307
0.212072
0.20346
0.191307
0.174777
0.153578
0.128646
0.101239
0.0739959
0.0481609
0.0274675
0.0109653
0.00282765
0.00842603
0.0255995
0.0541477
0.140926
0.283225
0.526909
0.758636
0.983005
1.16641
1.28422
1.32236
1.30864
1.28067
1.25145
1.2273
1.21104
1.19387
1.17592
1.154
1.13144
1.10434
1.07704
1.04282
1.00977
0.973048
0.93746
0.89892
0.859768
0.818562
0.772857
0.722233
0.6701
0.615216
0.557748
0.495472
0.421049
0.351344
0.278242
0.194151
0.0984761
0.0335497
0.00868301
0.00341684
0.00225542
0.00138112
0.00075863
0.000444564
0.00027338
0.000165521
0.000101475
7.06006e-05
5.4982e-05
5.07765e-05
4.87659e-05
5.06511e-05
5.24622e-05
5.47358e-05
5.77094e-05
6.16648e-05
6.72226e-05
7.41933e-05
8.2222e-05
9.09846e-05
0.000100739
0.000111745
0.000124222
0.000138241
0.000153877
0.000171251
0.000190353
0.000211431
0.000234192
0.000259458
0.000287428
0.000318262
0.000352748
0.000390752
0.000431337
0.000475162
0.000523029
0.000575787
0.000633703
0.000694256
0.000758761
0.000827644
0.000902116
0.000983279
0.00107087
0.00116365
0.00126041
0.00136034
0.00146537
0.00157612
0.00169359
0.00181886
0.00195104
0.00208813
0.00222824
0.00237025
0.00251723
0.00267142
0.00283116
0.00298892
0.00314429
0.00329904
0.00345802
0.0036177
0.00378104
0.00394658
0.00412187
0.00430411
0.00449435
0.00469645
0.00494493
0.0053201
0.00568844
0.00597484
0.00629568
0.00669919
0.00705476
0.00706215
0.00717291
0.00771424
0.00802609
0.00840503
0.00876484
0.00914666
0.00954844
0.00997371
0.0104317
0.0109241
0.0114586
0.0120398
0.0126731
0.0133644
0.0141592
0.0151797
0.0163618
0.0176786
0.0190406
0.0203615
0.0217355
0.0233143
0.0250127
0.0268068
0.0286429
0.030493
0.0322893
0.0339742
0.0355182
0.0368877
0.0386882
0.0406193
0.0425651
0.045017
0.0481664
0.0520779
0.0568654
0.0624883
0.0688297
0.0756743
0.0828087
0.0899334
0.0970058
0.103881
0.110284
0.116261
0.121357
0.126483
0.1305
0.135358
0.138579
0.142245
0.147968
0.581467
0.632957
0.623152
0.610963
0.598756
0.585936
0.57022
0.548459
0.517614
0.475361
0.420616
0.35537
0.28246
0.208658
0.13725
0.0790127
0.0317565
0.00819527
0.0243534
0.0735146
0.15268
0.378918
0.717017
1.26382
1.77813
2.26012
2.63644
2.89178
2.99371
2.98543
2.94276
2.89378
2.85209
2.82493
2.79588
2.76515
2.72542
2.68374
2.63189
2.57907
2.51123
2.44493
2.36906
2.29529
2.21375
2.1306
2.04143
1.94173
1.83067
1.71409
1.58891
1.45554
1.30896
1.13012
0.958753
0.771613
0.549363
0.284966
0.0980332
0.0252438
0.00988859
0.00652843
0.00400083
0.00219761
0.00128671
0.000790697
0.000478221
0.000292636
0.000203185
0.000158071
0.000145988
0.000140164
0.000145634
0.000150944
0.000157597
0.000166275
0.000177755
0.000193834
0.00021399
0.000237219
0.000262589
0.000290827
0.000322685
0.000358795
0.000399366
0.000444615
0.000494903
0.000550187
0.000611198
0.000677089
0.000750204
0.000831147
0.000920358
0.0010201
0.00113003
0.00124743
0.00137418
0.00151261
0.00166512
0.00183253
0.00200757
0.00219402
0.0023931
0.00260827
0.00284273
0.00309571
0.00336364
0.00364304
0.00393156
0.00423476
0.00455446
0.00489347
0.00525491
0.0056362
0.00603161
0.00643572
0.00684532
0.00726927
0.00771389
0.00817444
0.00862938
0.00907765
0.00952419
0.00998306
0.010444
0.0109157
0.0113938
0.0118998
0.0124258
0.0129748
0.0135577
0.0142725
0.0153533
0.0164098
0.0172331
0.0181556
0.019313
0.0203345
0.0203614
0.0206842
0.0222394
0.0231341
0.0242231
0.0252571
0.0263545
0.0275093
0.0287316
0.0300478
0.0314629
0.032999
0.0346693
0.0364895
0.0384763
0.0407603
0.0436917
0.0470867
0.0508693
0.0547857
0.0585908
0.0625556
0.067117
0.0720329
0.0772367
0.0825746
0.0879629
0.0931987
0.098102
0.102568
0.106476
0.111546
0.116893
0.122184
0.12883
0.137382
0.148025
0.161078
0.176416
0.193697
0.212313
0.231664
0.250924
0.269977
0.288429
0.305553
0.321479
0.335017
0.3486
0.35921
0.372022
0.380481
0.390119
0.405106
1.1889
1.27131
1.25426
1.23268
1.21088
1.18797
1.15985
1.12078
1.06505
0.987876
0.886218
0.762288
0.619516
0.469549
0.31758
0.187714
0.0769773
0.0199979
0.0590235
0.174802
0.346671
0.780331
1.34267
2.20124
3.00792
3.74684
4.29732
4.69408
4.88424
4.90761
4.87268
4.82229
4.77727
4.75045
4.72085
4.68906
4.64308
4.59342
4.52791
4.46033
4.37021
4.2812
4.17495
4.07152
3.95413
3.83433
3.70287
3.55484
3.38953
3.21252
3.01777
2.80613
2.57031
2.27574
1.98707
1.65112
1.22877
0.676466
0.24134
0.0619207
0.024085
0.0159092
0.00976668
0.00536992
0.00314431
0.00193247
0.00116894
0.000715033
0.000495999
0.000385646
0.000355988
0.000341652
0.000354938
0.000367912
0.000384164
0.00040535
0.000433348
0.000472539
0.000521673
0.000578314
0.000640191
0.000709058
0.000786749
0.000874801
0.000973731
0.00108406
0.00120667
0.00134146
0.0014902
0.00165085
0.00182908
0.00202637
0.00224379
0.00248681
0.00275458
0.00304056
0.00334925
0.00368634
0.00405752
0.00446483
0.00489067
0.0053441
0.00582814
0.00635113
0.00692069
0.00753498
0.00818524
0.00886308
0.00956283
0.0102979
0.0110725
0.0118936
0.0127684
0.0136908
0.0146468
0.0156234
0.016613
0.017637
0.0187103
0.0198214
0.0209186
0.0220003
0.0230779
0.0241852
0.0252979
0.0264366
0.0275909
0.0288123
0.0300813
0.031405
0.0328095
0.034523
0.0371221
0.0396396
0.0416093
0.0438152
0.0465715
0.049011
0.0490962
0.0498845
0.0535944
0.0557241
0.0583216
0.0607873
0.0634039
0.0661566
0.0690693
0.0722051
0.0755757
0.0792335
0.08321
0.0875438
0.0922735
0.0977061
0.104669
0.112726
0.121704
0.13102
0.140112
0.149625
0.1606
0.172477
0.185111
0.198136
0.211333
0.224167
0.236118
0.246808
0.255812
0.267065
0.278377
0.288974
0.302216
0.319417
0.341035
0.367785
0.399336
0.434882
0.473048
0.512514
0.551536
0.589875
0.626728
0.660676
0.692046
0.718538
0.745008
0.76555
0.790308
0.806503
0.825023
0.853588
1.93845
2.03943
2.01686
1.98719
1.95692
1.92509
1.88605
1.83169
1.75378
1.6449
1.49935
1.31814
1.10288
0.867543
0.61466
0.382933
0.164975
0.0438842
0.127597
0.359919
0.655358
1.29551
2.01753
3.09622
4.12767
5.07017
5.74389
6.25886
6.54342
6.61585
6.60686
6.57117
6.53565
6.51868
6.4983
6.47601
6.4354
6.38965
6.32363
6.25474
6.15817
6.06209
5.94198
5.82634
5.69114
5.55378
5.3995
5.22514
5.03111
4.82022
4.58269
4.32038
4.02635
3.65303
3.28468
2.82856
2.22632
1.34884
0.527639
0.136922
0.0526168
0.0347976
0.0214295
0.0118052
0.00691691
0.00425357
0.00257446
0.00157464
0.0010913
0.000848136
0.000782406
0.000750549
0.000779552
0.000808033
0.000843718
0.000890246
0.000951693
0.00103768
0.00114549
0.00126979
0.00140561
0.00155676
0.00172725
0.00192045
0.0021375
0.0023795
0.00264842
0.00294398
0.0032701
0.0036223
0.0040129
0.00444517
0.00492137
0.00545333
0.00603916
0.00666468
0.00733952
0.0080761
0.00888643
0.00977485
0.0107032
0.011691
0.0127446
0.013882
0.0151192
0.0164521
0.0178614
0.0193289
0.0208424
0.0224304
0.0241021
0.0258716
0.0277541
0.0297363
0.0317879
0.0338812
0.0360006
0.038192
0.0404857
0.0428572
0.0451979
0.0475064
0.0498063
0.0521695
0.0545441
0.0569748
0.0594386
0.0620422
0.0647435
0.0675568
0.0705319
0.0741244
0.0796154
0.0848443
0.08896
0.0935597
0.0992795
0.104378
0.104634
0.106322
0.114026
0.118432
0.12382
0.128933
0.134354
0.140055
0.146083
0.152568
0.159534
0.167091
0.175303
0.184252
0.194018
0.20521
0.219503
0.236009
0.254411
0.2736
0.292505
0.312468
0.335623
0.360882
0.387993
0.416197
0.444933
0.472835
0.498381
0.520178
0.536759
0.555607
0.572169
0.585315
0.60217
0.625694
0.657038
0.6976
0.746652
0.802597
0.862871
0.925091
0.986301
1.04608
1.10311
1.15526
1.20312
1.24327
1.28323
1.31401
1.35109
1.37506
1.40267
1.44482
2.68832
2.79146
2.76658
2.73157
2.69537
2.65736
2.61084
2.54647
2.45405
2.32419
2.14877
1.92705
1.65744
1.35334
1.0095
0.673586
0.316318
0.0895659
0.251811
0.644981
1.05529
1.83275
2.6153
3.77966
4.94346
6.03799
6.79003
7.3982
7.77877
7.91316
7.94256
7.93235
7.91436
7.91241
7.90649
7.90003
7.87251
7.83901
7.78208
7.72218
7.63185
7.54222
7.4222
7.30789
7.16962
7.03055
6.87051
6.68948
6.48984
6.27084
6.01807
5.73517
5.41809
5.01301
4.61971
4.10269
3.39867
2.27549
1.02696
0.282565
0.106595
0.0706098
0.0437323
0.0241835
0.0141942
0.00874055
0.0052963
0.00323998
0.00224321
0.00174299
0.00160672
0.00154047
0.00159949
0.00165783
0.00173098
0.00182639
0.00195232
0.00212845
0.00234921
0.00260376
0.00288192
0.00319143
0.00354045
0.00393578
0.00437977
0.00487457
0.0054242
0.00602794
0.00669381
0.00741268
0.00820927
0.00909019
0.0100598
0.0111414
0.0123312
0.0136004
0.014968
0.0164588
0.0180954
0.0198862
0.0217546
0.0237393
0.025852
0.0281273
0.0305961
0.0332489
0.0360463
0.0389523
0.0419416
0.0450698
0.0483541
0.0518197
0.055495
0.0593539
0.0633364
0.0673895
0.0714844
0.0757101
0.0801215
0.0846729
0.0891601
0.0935873
0.0979969
0.102526
0.107077
0.111735
0.116452
0.121423
0.126564
0.131897
0.137494
0.144125
0.154437
0.163952
0.17152
0.179946
0.190371
0.199777
0.200466
0.203679
0.217699
0.225675
0.235462
0.244742
0.254575
0.264905
0.275814
0.287543
0.300131
0.313779
0.328606
0.344769
0.362405
0.382543
0.408085
0.437482
0.470292
0.504787
0.539313
0.576281
0.619439
0.666995
0.718586
0.772764
0.828121
0.881339
0.928282
0.964751
0.986923
1.00716
1.0186
1.02119
1.02831
1.0459
1.07641
1.12212
1.18161
1.25219
1.3296
1.41008
1.48928
1.5665
1.63986
1.70658
1.76755
1.81839
1.86895
1.90758
1.95425
1.98399
2.01867
2.071
3.3486
3.43621
3.41292
3.37548
3.33607
3.29481
3.24454
3.1752
3.07568
2.93545
2.74474
2.50122
2.19993
1.85403
1.44819
1.03299
0.538653
0.171861
0.450812
1.00896
1.49766
2.32661
3.07165
4.19288
5.40082
6.6206
7.42599
8.10964
8.58633
8.7912
8.86664
8.88695
8.88979
8.90395
8.91311
8.92403
8.91235
8.89448
8.85066
8.80447
8.72643
8.65064
8.53879
8.43416
8.30221
8.17177
8.01779
7.84363
7.65459
7.44758
7.20202
6.92377
6.6135
6.215
5.84069
5.31607
4.59338
3.3517
1.75508
0.54871
0.203504
0.134879
0.0843828
0.047017
0.0277056
0.0171102
0.0103913
0.00636124
0.00439926
0.00341905
0.0031491
0.00301731
0.0031316
0.00324546
0.00338843
0.00357509
0.00382113
0.00416488
0.00459541
0.00509168
0.00563393
0.00623698
0.00691655
0.00768555
0.0085484
0.00950892
0.0105748
0.011744
0.013032
0.0144209
0.015957
0.0176525
0.0195145
0.0215856
0.0238576
0.0262755
0.0288728
0.0316948
0.0347796
0.0381416
0.0416362
0.0453335
0.049252
0.0534515
0.0579842
0.0628303
0.0679137
0.0731684
0.0785466
0.0841458
0.0899938
0.0961307
0.102603
0.109365
0.11631
0.123349
0.130433
0.137721
0.1453
0.153097
0.160769
0.168342
0.175884
0.183626
0.191403
0.199357
0.207399
0.21584
0.224526
0.233475
0.242761
0.253489
0.270589
0.285648
0.297835
0.311355
0.327977
0.343169
0.344759
0.350271
0.372562
0.385196
0.400757
0.415518
0.431148
0.44756
0.464882
0.483496
0.50347
0.525125
0.548664
0.574347
0.602389
0.634269
0.674326
0.720242
0.771582
0.826103
0.881668
0.94199
1.01265
1.09098
1.17632
1.26601
1.35689
1.44224
1.51355
1.56245
1.58249
1.59211
1.58334
1.55844
1.53837
1.53297
1.5468
1.58355
1.64117
1.71592
1.80135
1.8924
1.983
2.07156
2.15561
2.23182
2.30131
2.35901
2.41643
2.45998
2.51287
2.54604
2.58537
2.64392
3.88091
3.93822
3.91964
3.88187
3.84109
3.79859
3.74718
3.67664
3.57568
3.43348
3.23944
2.99042
2.67882
2.31636
1.87788
1.41795
0.817173
0.306265
0.718944
1.41064
1.9467
2.76746
3.40804
4.37948
5.53525
6.87629
7.72169
8.47017
9.04392
9.32561
9.45373
9.50795
9.53286
9.56321
9.58612
9.61384
9.61795
9.61642
9.58658
9.55548
9.49138
9.43254
9.33245
9.24119
9.11989
9.00285
8.86095
8.70026
8.52932
8.34556
8.12054
7.86233
7.57645
7.20728
6.88286
6.39605
5.71897
4.47539
2.66792
0.982666
0.367764
0.242991
0.154496
0.0873138
0.0518792
0.0322293
0.0196603
0.0120562
0.00833043
0.0064805
0.0059633
0.00570924
0.00592201
0.00613606
0.00640552
0.00675764
0.00722085
0.00786662
0.00867395
0.00960363
0.0106187
0.0117461
0.0130143
0.0144463
0.0160496
0.0178296
0.0197999
0.0219547
0.0243212
0.0268651
0.0296668
0.0327459
0.0361108
0.0398313
0.0438902
0.0481866
0.052773
0.0577236
0.0630929
0.0689025
0.0748984
0.081197
0.0878207
0.0948619
0.102399
0.110394
0.118714
0.12725
0.135921
0.144884
0.154177
0.16386
0.173998
0.18453
0.195285
0.206125
0.21699
0.228131
0.23968
0.251522
0.26315
0.274638
0.286089
0.297838
0.309641
0.321708
0.333891
0.346626
0.35966
0.372996
0.386694
0.402213
0.427225
0.448234
0.465657
0.484952
0.508393
0.529985
0.533155
0.541934
0.573338
0.591249
0.613338
0.634353
0.656608
0.679995
0.704695
0.731255
0.759784
0.79075
0.824461
0.86131
0.901607
0.947253
1.00403
1.06887
1.14149
1.21926
1.29966
1.38765
1.49036
1.60388
1.72675
1.85442
1.9813
2.09692
2.18874
2.24512
2.25771
2.2505
2.21359
2.15057
2.08962
2.04512
2.02525
2.03644
2.0772
2.14463
2.22841
2.32145
2.41593
2.50937
2.59844
2.67922
2.75293
2.81395
2.87491
2.92076
2.977
3.01151
3.0535
3.11492
4.29101
4.3081
4.29584
4.259
4.21781
4.17515
4.12401
4.05438
3.95527
3.81604
3.62592
3.38164
3.07394
2.71417
2.26868
1.79375
1.12598
0.495992
1.02597
1.82177
2.39328
3.18314
3.695
4.44191
5.46339
6.84217
7.75459
8.5618
9.23595
9.59857
9.78724
9.8794
9.92832
9.97556
10.0108
10.0546
10.0737
10.0883
10.0725
10.0567
10.0065
9.96578
9.87903
9.80265
9.69377
9.5919
9.46475
9.32019
9.16938
9.0139
8.81623
8.5864
8.33331
8.00266
7.7418
7.32114
6.73597
5.57917
3.71391
1.59256
0.62436
0.410481
0.26684
0.154387
0.0931415
0.0585082
0.0359906
0.0221499
0.0153134
0.0119354
0.0109715
0.0104935
0.0108748
0.0112633
0.0117542
0.0123963
0.0132376
0.0144059
0.0158613
0.0175331
0.0193542
0.0213705
0.0236297
0.0261689
0.028998
0.032122
0.0355609
0.0392984
0.043378
0.0477343
0.0524944
0.0576832
0.0633034
0.069457
0.0761081
0.0830851
0.0904606
0.0983428
0.106799
0.115856
0.12511
0.134744
0.144774
0.155332
0.166525
0.178292
0.19043
0.202781
0.215227
0.227999
0.241147
0.254757
0.268911
0.283544
0.298416
0.313333
0.328233
0.343499
0.359301
0.375466
0.391299
0.406977
0.422645
0.438727
0.454899
0.471446
0.488158
0.505582
0.523348
0.541464
0.559999
0.580986
0.613981
0.640827
0.663777
0.689177
0.719366
0.747138
0.752775
0.766194
0.806763
0.830476
0.859571
0.887424
0.916952
0.948038
0.980933
1.01635
1.05447
1.09592
1.14112
1.1906
1.2448
1.306
1.38132
1.46696
1.56275
1.66565
1.77272
1.88995
2.02552
2.1739
2.3324
2.49438
2.65205
2.79218
2.89965
2.96098
2.96616
2.94306
2.87788
2.77376
2.66467
2.56934
2.50031
2.46875
2.47592
2.52046
2.59021
2.67584
2.76719
2.86024
2.95008
3.03199
3.10704
3.16905
3.23149
3.27797
3.33587
3.37038
3.41392
3.47611
4.60217
4.5753
4.569
4.53375
4.49263
4.45032
4.40016
4.33252
4.23694
4.10328
3.92096
3.68706
3.39122
3.04572
2.60983
2.14353
1.44354
0.728916
1.34823
2.23262
2.8411
3.60199
4.00163
4.49137
5.2849
6.61336
7.58212
8.44101
9.20312
9.67088
9.93006
10.0653
10.1417
10.2081
10.255
10.3146
10.3478
10.3791
10.3769
10.3768
10.34
10.3181
10.2457
10.1852
10.0897
10.0037
9.89256
9.76536
9.63416
9.50852
9.34135
9.14467
8.92803
8.63803
8.44203
8.10157
7.63575
6.6172
4.85045
2.37317
0.979433
0.645678
0.430771
0.257556
0.159105
0.101767
0.063445
0.0393941
0.027296
0.0213435
0.0195958
0.0187165
0.019368
0.0200428
0.0209001
0.0220216
0.0234809
0.0254947
0.0279875
0.0308362
0.0339226
0.0373184
0.041095
0.0453039
0.0499527
0.0550379
0.060584
0.0665506
0.0729994
0.0798143
0.087178
0.0951124
0.103606
0.112792
0.122606
0.132787
0.143435
0.15469
0.16663
0.179277
0.192069
0.205277
0.218895
0.23311
0.248048
0.263641
0.279605
0.295741
0.311894
0.32839
0.345291
0.362718
0.380759
0.399379
0.418261
0.437133
0.455957
0.475295
0.495355
0.515858
0.53587
0.555757
0.57572
0.596243
0.61692
0.638128
0.659603
0.681998
0.70482
0.728149
0.752129
0.780132
0.820686
0.853756
0.882854
0.914985
0.951899
0.985435
0.994656
1.01471
1.06457
1.09503
1.13189
1.16746
1.20518
1.24495
1.2871
1.33251
1.38142
1.43462
1.49266
1.55616
1.62568
1.70388
1.79903
1.90653
2.02622
2.15455
2.28814
2.43381
2.60041
2.7807
2.97072
3.16203
3.34533
3.50555
3.62604
3.69209
3.6919
3.65618
3.5659
3.42225
3.26349
3.11168
2.98324
2.89468
2.85184
2.85603
2.89711
2.96424
3.0445
3.13202
3.21917
3.29973
3.3743
3.43589
3.49871
3.54488
3.60364
3.63734
3.68198
3.74382
4.83602
4.76961
4.76695
4.7336
4.69285
4.65114
4.60233
4.53727
4.44617
4.31958
4.14723
3.92687
3.6473
3.3226
2.90582
2.46446
1.75881
0.991179
1.67874
2.64307
3.29453
4.03752
4.36124
4.60658
5.1182
6.26107
7.25097
8.14828
8.99527
9.57347
9.91193
10.1064
10.2154
10.3054
10.3638
10.4399
10.4868
10.536
10.5473
10.5631
10.5397
10.5369
10.4801
10.4365
10.3552
10.2856
10.1913
10.0823
9.96936
9.87314
9.73735
9.57691
9.39817
9.14893
9.01204
8.75583
8.42302
7.56418
6.03204
3.3324
1.4222
0.942645
0.646464
0.401954
0.256117
0.16791
0.106663
0.0673351
0.0468367
0.0367892
0.0337161
0.0321375
0.0331723
0.0342685
0.0356726
0.0375086
0.0398732
0.0431103
0.0470795
0.0515769
0.0564043
0.0616652
0.0674514
0.073825
0.0807813
0.088298
0.0963991
0.105008
0.114206
0.123813
0.134073
0.144996
0.156557
0.168912
0.181963
0.19537
0.209272
0.223841
0.239156
0.255227
0.27135
0.287918
0.304888
0.322512
0.340931
0.360093
0.379622
0.39929
0.418909
0.438922
0.459404
0.480536
0.502376
0.524971
0.547904
0.570772
0.593577
0.617155
0.64174
0.666871
0.691247
0.715554
0.740083
0.765351
0.790862
0.817123
0.843834
0.87178
0.900341
0.929792
0.9603
0.998183
1.04609
1.08645
1.12281
1.16261
1.20641
1.24542
1.2596
1.28881
1.34807
1.38649
1.43202
1.47625
1.52312
1.57252
1.62489
1.68125
1.74193
1.80781
1.87959
1.95795
2.04354
2.13936
2.25465
2.384
2.52714
2.68
2.83877
3.011
3.20605
3.41509
3.63308
3.85019
4.05602
4.23422
4.36693
4.43829
4.43472
4.38943
4.27758
4.0975
3.89077
3.68167
3.48949
3.33549
3.23034
3.18002
3.17659
3.21179
3.27112
3.34608
3.42612
3.50255
3.57497
3.63498
3.69747
3.74269
3.80197
3.83429
3.8799
3.9407
5.00839
4.9136
4.91158
4.88025
4.84012
4.79918
4.75196
4.68988
4.60392
4.48539
4.32445
4.11969
3.85907
3.5592
3.16712
2.76081
2.06957
1.27421
2.01964
3.05644
3.75619
4.49231
4.77812
4.82096
5.05476
5.87915
6.81359
7.71553
8.63225
9.32379
9.75652
10.0217
10.1722
10.2901
10.364
10.459
10.5188
10.5883
10.6126
10.6458
10.6356
10.6521
10.6122
10.5867
10.5208
10.468
10.391
10.3013
10.2053
10.1369
10.0316
9.90952
9.76865
9.56101
9.47454
9.29907
9.10228
8.40929
7.20555
4.47833
1.96446
1.28463
0.903865
0.585307
0.386359
0.260217
0.170086
0.109708
0.0765986
0.0604322
0.0551967
0.052437
0.0538984
0.0555034
0.0575936
0.0603355
0.0638294
0.0685806
0.0743405
0.0807958
0.0876431
0.0950268
0.10305
0.11178
0.12119
0.131237
0.141944
0.153195
0.165093
0.177401
0.190432
0.204172
0.218601
0.233885
0.249889
0.266222
0.283095
0.300706
0.31913
0.338346
0.357528
0.37725
0.397402
0.418322
0.440157
0.462903
0.486057
0.509363
0.532587
0.556334
0.580683
0.605917
0.632185
0.659133
0.686526
0.713985
0.741354
0.769769
0.799575
0.830034
0.859248
0.888439
0.918039
0.948587
0.979481
1.01143
1.04411
1.0785
1.11384
1.15075
1.18968
1.23984
1.29541
1.34416
1.38885
1.43702
1.48768
1.53194
1.55256
1.59373
1.66187
1.70924
1.76407
1.81766
1.8743
1.93394
1.9971
2.06494
2.13785
2.21685
2.30269
2.39613
2.49788
2.61124
2.74629
2.89683
3.06246
3.2386
3.42106
3.6181
3.83956
4.07521
4.31908
4.56022
4.78735
4.98294
5.12799
5.20542
5.19998
5.14737
5.01679
4.80327
4.55128
4.28657
4.0303
3.80758
3.63319
3.51825
3.45805
3.44794
3.47388
3.52728
3.5938
3.66166
3.72935
3.78611
3.84744
3.89103
3.9506
3.98097
4.02758
4.0868
5.13424
5.02204
5.01835
4.98907
4.94983
4.90981
4.86438
4.80561
4.72531
4.61565
4.46723
4.27961
4.03985
3.76769
3.40405
3.03915
2.3778
1.57407
2.3765
3.47703
4.22779
4.96443
5.24529
5.13111
5.11524
5.5894
6.35143
7.1849
8.13267
8.92942
9.4675
9.81754
10.0217
10.1765
10.2704
10.3859
10.4596
10.5504
10.5873
10.6427
10.6435
10.6815
10.659
10.6527
10.6036
10.5684
10.5092
10.4398
10.3601
10.317
10.2399
10.1574
10.0529
9.8896
9.84395
9.74244
9.67144
9.14979
8.31509
5.78652
2.66181
1.66245
1.1891
0.798717
0.546092
0.378418
0.256909
0.169928
0.118769
0.0938353
0.0851291
0.0804142
0.0821111
0.0841413
0.0868911
0.0905642
0.0952199
0.101552
0.109147
0.117564
0.126386
0.135824
0.145979
0.156923
0.168605
0.180969
0.194037
0.207666
0.221987
0.23672
0.252267
0.268572
0.285651
0.303666
0.322431
0.34153
0.361303
0.381961
0.403576
0.426057
0.448436
0.471566
0.495233
0.519867
0.545604
0.572543
0.599962
0.627582
0.655187
0.683561
0.712657
0.742867
0.774228
0.806241
0.83879
0.87151
0.904276
0.938229
0.973785
1.01019
1.04523
1.07977
1.11494
1.15132
1.18818
1.22651
1.26596
1.30779
1.35104
1.39678
1.44697
1.50979
1.5737
1.63156
1.68526
1.74204
1.79939
1.84858
1.87758
1.93268
2.00885
2.06583
2.13027
2.19358
2.26031
2.33045
2.40465
2.48416
2.56945
2.66163
2.76152
2.86993
2.98763
3.1182
3.27247
3.44352
3.63078
3.82926
4.03438
4.25517
4.50194
4.76322
5.03223
5.29696
5.54533
5.75861
5.91656
6.00081
5.99455
5.93616
5.78882
5.54413
5.24937
4.93134
4.61248
4.3209
4.07457
3.88911
3.76338
3.69701
3.6785
3.6989
3.74341
3.79662
3.85522
3.9058
3.96445
4.0053
4.06479
4.09254
4.14014
4.19723
5.22911
5.10439
5.09766
5.0704
5.03233
4.9934
4.94996
4.89477
4.82058
4.72049
4.58552
4.41632
4.19892
3.95675
3.62444
3.30484
2.68614
1.88957
2.75607
3.90934
4.71073
5.45179
5.74883
5.52321
5.28092
5.46863
5.96809
6.63114
7.53047
8.39849
9.04294
9.49127
9.76283
9.96613
10.0868
10.2265
10.3158
10.4296
10.4808
10.5598
10.5728
10.6341
10.6265
10.6422
10.6118
10.5948
10.554
10.5056
10.443
10.4223
10.3701
10.3269
10.2556
10.1416
10.1278
10.095
10.1209
9.78357
9.30508
7.2067
3.59265
2.08767
1.49436
1.03153
0.726324
0.520265
0.368429
0.251224
0.175295
0.137987
0.123702
0.115768
0.117039
0.119129
0.122257
0.12667
0.132302
0.140076
0.149339
0.159509
0.170057
0.181317
0.193375
0.206311
0.220046
0.234521
0.249768
0.265612
0.282231
0.299304
0.317365
0.336287
0.356154
0.377106
0.398874
0.421015
0.444081
0.468276
0.493676
0.52007
0.546247
0.573508
0.601472
0.630889
0.661649
0.693559
0.726049
0.758876
0.791871
0.825813
0.860611
0.896705
0.933934
0.971706
1.01005
1.04864
1.08751
1.12753
1.16912
1.2116
1.25285
1.2938
1.33507
1.3778
1.42112
1.46651
1.51347
1.56371
1.61592
1.67231
1.73587
1.81044
1.88349
1.95084
2.01385
2.07922
2.14312
2.19673
2.23723
2.30591
2.38986
2.45681
2.531
2.6042
2.68118
2.76194
2.84728
2.93851
3.0362
3.14152
3.2554
3.37866
3.51212
3.65968
3.83281
4.02397
4.23248
4.45291
4.68032
4.92455
5.19642
5.48332
5.77767
6.06644
6.3367
6.56844
6.74008
6.83186
6.82553
6.76234
6.59946
6.32503
5.9893
5.61995
5.24035
4.88109
4.56253
4.30404
4.10735
3.97661
3.90346
3.88126
3.89381
3.92423
3.9678
4.00789
4.06105
4.09719
4.15576
4.1799
4.22836
4.28264
5.30039
5.16754
5.15637
5.13104
5.09444
5.05678
5.01551
4.96416
4.89648
4.80653
4.68579
4.53605
4.34227
4.13182
3.83316
3.56135
2.99649
2.22028
3.16532
4.35794
5.20621
5.95536
6.27289
5.97212
5.54903
5.51046
5.73239
6.15809
6.89744
7.75822
8.48431
9.03554
9.3879
9.65317
9.81035
9.98027
10.0881
10.227
10.2942
10.3982
10.4248
10.5106
10.5176
10.5605
10.5452
10.5507
10.5252
10.5001
10.4574
10.4552
10.4253
10.4188
10.3762
10.3179
10.3291
10.3585
10.4422
10.3082
10.1228
8.66786
4.83618
2.59422
1.82198
1.27813
0.921965
0.680544
0.503165
0.356451
0.249011
0.194431
0.171408
0.15827
0.157644
0.159102
0.162065
0.166861
0.173153
0.182197
0.192984
0.204753