/*--------------------------------*- C++ -*----------------------------------*\
| =========                 |                                                 |
| \\      /  F ield         | OpenFOAM: The Open Source CFD Toolbox           |
|  \\    /   O peration     | Version:  2212                                  |
|   \\  /    A nd           | Website:  www.openfoam.com                      |
|    \\/     M anipulation  |                                                 |
\*---------------------------------------------------------------------------*/
FoamFile
{
    version     2.0;
    format      ascii;
    arch        "LSB;label=32;scalar=64";
    class       volScalarField;
    location    "1";
    object      omega;
}
// * * * * * * * * * * * * * * * * * * * * * * * * * * * * * * * * * * * * * //

dimensions      [0 0 -1 0 0 0 0];

internalField   nonuniform List<scalar> 
10368
(
2.7246e+07
2.72461e+07
2.72461e+07
2.72461e+07
2.72461e+07
2.72461e+07
2.72461e+07
2.72461e+07
2.72461e+07
2.72461e+07
2.7246e+07
2.7246e+07
2.72459e+07
2.72459e+07
2.72458e+07
2.72474e+07
2.73324e+07
2.75815e+07
2.4768e+07
2.42951e+07
2.56319e+07
2.72674e+07
2.83458e+07
2.88033e+07
2.9372e+07
3.00958e+07
3.08156e+07
3.15473e+07
3.22732e+07
3.29583e+07
3.35813e+07
3.41478e+07
3.46674e+07
3.51586e+07
3.56273e+07
3.60714e+07
3.64892e+07
3.68876e+07
3.72744e+07
3.76401e+07
3.79882e+07
3.82927e+07
3.85727e+07
3.88227e+07
3.90411e+07
3.92406e+07
3.93959e+07
3.95509e+07
3.96693e+07
3.97397e+07
3.97716e+07
3.97654e+07
3.97505e+07
3.9725e+07
3.96285e+07
3.94523e+07
3.93985e+07
3.95707e+07
4.00335e+07
4.09557e+07
4.26121e+07
4.48451e+07
4.66899e+07
4.81199e+07
4.9147e+07
4.97031e+07
4.97424e+07
4.93971e+07
4.88718e+07
4.79459e+07
4.67614e+07
4.57984e+07
4.50493e+07
4.42293e+07
4.32539e+07
4.21349e+07
4.09807e+07
3.99308e+07
3.89671e+07
3.80769e+07
3.71708e+07
3.62868e+07
3.54331e+07
3.46278e+07
3.38724e+07
3.31655e+07
3.25134e+07
3.19051e+07
3.13534e+07
3.08397e+07
3.03824e+07
2.99733e+07
2.96113e+07
2.92952e+07
2.90189e+07
2.87729e+07
2.85576e+07
2.83709e+07
2.821e+07
2.80714e+07
2.79501e+07
2.78452e+07
2.77547e+07
2.76762e+07
2.76071e+07
2.75449e+07
2.74887e+07
2.74378e+07
2.7393e+07
2.73526e+07
2.73162e+07
2.72823e+07
2.72493e+07
2.72179e+07
2.71886e+07
2.71631e+07
2.71448e+07
2.71329e+07
2.71259e+07
2.71227e+07
2.71318e+07
2.71567e+07
2.72015e+07
2.72611e+07
2.73444e+07
2.7446e+07
2.75722e+07
2.77093e+07
2.78592e+07
2.801e+07
2.81541e+07
2.82485e+07
2.8266e+07
2.82505e+07
2.82472e+07
2.82346e+07
2.81785e+07
2.81426e+07
2.82798e+07
2.84269e+07
2.84268e+07
2.84268e+07
2.84268e+07
2.84268e+07
2.84268e+07
2.84269e+07
2.84269e+07
2.84269e+07
2.84269e+07
2.84269e+07
2.8427e+07
2.8427e+07
2.84166e+07
2.83298e+07
2.81198e+07
2.78302e+07
2.75367e+07
2.7326e+07
2.72492e+07
2.72458e+07
2.72458e+07
2.72458e+07
2.72458e+07
2.72459e+07
2.72459e+07
2.72459e+07
2.72459e+07
2.72459e+07
2.72459e+07
2.72459e+07
2.72459e+07
2.7246e+07
2.7246e+07
2.7246e+07
2.7246e+07
2.7246e+07
2.7246e+07
2.7246e+07
2.7246e+07
2.7246e+07
2.7246e+07
2.7246e+07
2.7246e+07
2.7246e+07
2.7246e+07
2.7246e+07
2.7246e+07
2.7246e+07
2.7246e+07
2.7246e+07
2.7246e+07
2.7246e+07
4.71479e+06
4.71224e+06
4.7121e+06
4.71195e+06
4.7118e+06
4.71164e+06
4.71144e+06
4.71114e+06
4.71071e+06
4.71012e+06
4.70933e+06
4.70837e+06
4.70727e+06
4.70613e+06
4.70505e+06
4.70439e+06
4.71867e+06
4.76169e+06
4.27572e+06
4.19412e+06
4.42719e+06
4.7161e+06
4.91326e+06
5.00196e+06
5.10297e+06
5.23127e+06
5.35977e+06
5.48688e+06
5.61082e+06
5.72768e+06
5.83413e+06
5.93104e+06
6.02015e+06
6.10463e+06
6.18512e+06
6.26127e+06
6.33279e+06
6.40096e+06
6.46701e+06
6.52942e+06
6.58855e+06
6.64012e+06
6.68752e+06
6.72965e+06
6.76631e+06
6.79957e+06
6.82518e+06
6.85062e+06
6.86931e+06
6.87967e+06
6.88339e+06
6.88051e+06
6.87606e+06
6.86927e+06
6.84988e+06
6.81732e+06
6.80672e+06
6.83473e+06
6.9123e+06
7.069e+06
7.354e+06
7.73942e+06
8.05812e+06
8.30519e+06
8.48274e+06
8.57903e+06
8.58609e+06
8.52666e+06
8.43619e+06
8.27658e+06
8.07216e+06
7.90582e+06
7.77646e+06
7.63501e+06
7.46674e+06
7.27366e+06
7.07443e+06
6.89317e+06
6.72679e+06
6.57312e+06
6.41671e+06
6.26412e+06
6.11676e+06
5.97773e+06
5.84733e+06
5.72529e+06
5.61272e+06
5.5077e+06
5.41245e+06
5.32377e+06
5.24482e+06
5.17419e+06
5.11169e+06
5.05713e+06
5.00942e+06
4.96694e+06
4.92978e+06
4.89756e+06
4.86978e+06
4.84585e+06
4.82491e+06
4.8068e+06
4.79118e+06
4.77764e+06
4.76571e+06
4.75499e+06
4.74528e+06
4.7365e+06
4.72878e+06
4.72182e+06
4.71553e+06
4.7097e+06
4.70401e+06
4.69859e+06
4.69355e+06
4.68916e+06
4.68602e+06
4.68398e+06
4.68279e+06
4.68224e+06
4.68382e+06
4.68813e+06
4.69588e+06
4.70618e+06
4.72057e+06
4.73813e+06
4.75994e+06
4.78361e+06
4.8095e+06
4.83555e+06
4.86046e+06
4.87676e+06
4.87976e+06
4.87709e+06
4.87653e+06
4.87437e+06
4.86467e+06
4.85848e+06
4.88223e+06
4.90766e+06
4.90763e+06
4.90762e+06
4.90763e+06
4.90764e+06
4.90766e+06
4.90767e+06
4.90768e+06
4.9077e+06
4.90771e+06
4.90773e+06
4.90774e+06
4.90775e+06
4.90596e+06
4.89097e+06
4.85472e+06
4.80474e+06
4.75406e+06
4.71766e+06
4.70438e+06
4.70375e+06
4.70369e+06
4.70361e+06
4.70351e+06
4.70339e+06
4.70326e+06
4.70313e+06
4.70304e+06
4.70299e+06
4.70302e+06
4.70315e+06
4.7034e+06
4.70375e+06
4.70417e+06
4.70464e+06
4.70511e+06
4.70557e+06
4.70599e+06
4.70639e+06
4.70675e+06
4.70709e+06
4.70739e+06
4.70767e+06
4.70793e+06
4.70816e+06
4.70838e+06
4.70856e+06
4.70874e+06
4.70887e+06
4.70904e+06
4.70915e+06
4.70926e+06
4.70945e+06
1.58824e+06
1.58056e+06
1.58017e+06
1.57974e+06
1.57933e+06
1.57889e+06
1.57832e+06
1.57751e+06
1.57633e+06
1.57467e+06
1.57246e+06
1.56974e+06
1.56661e+06
1.56327e+06
1.56001e+06
1.55719e+06
1.56045e+06
1.574e+06
1.41277e+06
1.38653e+06
1.46933e+06
1.57983e+06
1.66933e+06
1.72074e+06
1.76209e+06
1.81198e+06
1.8634e+06
1.90793e+06
1.94677e+06
1.98276e+06
2.0158e+06
2.04614e+06
2.07449e+06
2.10184e+06
2.12768e+06
2.15186e+06
2.17432e+06
2.19561e+06
2.21599e+06
2.23509e+06
2.25261e+06
2.26756e+06
2.28117e+06
2.29285e+06
2.30265e+06
2.31102e+06
2.3168e+06
2.32213e+06
2.32435e+06
2.32365e+06
2.32065e+06
2.31529e+06
2.30893e+06
2.30049e+06
2.28719e+06
2.27045e+06
2.26151e+06
2.26474e+06
2.2866e+06
2.33686e+06
2.43008e+06
2.5574e+06
2.66277e+06
2.74445e+06
2.80317e+06
2.83505e+06
2.83746e+06
2.81786e+06
2.78801e+06
2.73532e+06
2.66779e+06
2.6128e+06
2.57003e+06
2.5233e+06
2.46772e+06
2.40393e+06
2.3381e+06
2.27819e+06
2.2232e+06
2.17241e+06
2.12073e+06
2.0703e+06
2.0216e+06
1.97566e+06
1.93256e+06
1.89223e+06
1.85503e+06
1.82033e+06
1.78885e+06
1.75954e+06
1.73346e+06
1.71012e+06
1.68948e+06
1.67145e+06
1.65569e+06
1.64166e+06
1.62939e+06
1.61876e+06
1.60959e+06
1.6017e+06
1.59479e+06
1.58883e+06
1.58369e+06
1.57923e+06
1.57532e+06
1.5718e+06
1.56861e+06
1.56574e+06
1.56321e+06
1.56094e+06
1.55889e+06
1.557e+06
1.55515e+06
1.55339e+06
1.55176e+06
1.55034e+06
1.54933e+06
1.54869e+06
1.54833e+06
1.54817e+06
1.54872e+06
1.55016e+06
1.55274e+06
1.55617e+06
1.56094e+06
1.56676e+06
1.574e+06
1.58185e+06
1.59043e+06
1.59908e+06
1.60738e+06
1.61285e+06
1.6139e+06
1.61306e+06
1.61292e+06
1.61227e+06
1.60909e+06
1.607e+06
1.61486e+06
1.62336e+06
1.6234e+06
1.62342e+06
1.62347e+06
1.6235e+06
1.62354e+06
1.62358e+06
1.62361e+06
1.62365e+06
1.62368e+06
1.62371e+06
1.62374e+06
1.62376e+06
1.62318e+06
1.61824e+06
1.60626e+06
1.58974e+06
1.57297e+06
1.56089e+06
1.55641e+06
1.55608e+06
1.55589e+06
1.55564e+06
1.55533e+06
1.55499e+06
1.55462e+06
1.55427e+06
1.55401e+06
1.5539e+06
1.55402e+06
1.55444e+06
1.55518e+06
1.55622e+06
1.55747e+06
1.55885e+06
1.56024e+06
1.56159e+06
1.56284e+06
1.564e+06
1.56506e+06
1.56602e+06
1.56689e+06
1.5677e+06
1.56845e+06
1.56912e+06
1.56973e+06
1.57025e+06
1.57075e+06
1.57114e+06
1.5716e+06
1.57192e+06
1.57225e+06
1.57279e+06
761142
750897
750187
749443
748733
747962
746977
745564
743491
740552
736600
731647
725808
719412
712946
706966
705460
709929
636371
626082
672653
744107
816562
866783
895889
926002
958020
981652
998081
1.01232e+06
1.02563e+06
1.0381e+06
1.05019e+06
1.06235e+06
1.07364e+06
1.08392e+06
1.09316e+06
1.10178e+06
1.10972e+06
1.11697e+06
1.12295e+06
1.12758e+06
1.13157e+06
1.13447e+06
1.13636e+06
1.13721e+06
1.1367e+06
1.13553e+06
1.13185e+06
1.12639e+06
1.11958e+06
1.11133e+06
1.10186e+06
1.08948e+06
1.0734e+06
1.0562e+06
1.04253e+06
1.03234e+06
1.03403e+06
1.05462e+06
1.09573e+06
1.15306e+06
1.20051e+06
1.23727e+06
1.26373e+06
1.2781e+06
1.2792e+06
1.27037e+06
1.25692e+06
1.23319e+06
1.20277e+06
1.17798e+06
1.1587e+06
1.13763e+06
1.11258e+06
1.08384e+06
1.05417e+06
1.02717e+06
1.00238e+06
979491
956196
933470
911523
890817
871396
853221
836458
820822
806640
793441
781695
771190
761902
753796
746709
740408
734902
730139
726040
722510
719429
716775
714498
712536
710817
709278
707891
706642
705554
704583
703717
702924
702153
701421
700744
700157
699759
699529
699424
699402
699686
700373
701573
703148
705333
707989
711290
714875
718802
722772
726622
729233
729831
729529
729553
729366
727978
726969
730516
734493
734607
734665
734745
734815
734885
734952
735017
735078
735136
735187
735231
735262
735011
732786
727377
719893
712259
706685
704477
704074
703657
703135
702510
701810
701088
700430
699951
699788
700086
700967
702507
704653
707246
710072
712921
715643
718165
720464
722541
724417
726101
727637
729049
730316
731459
732418
733345
734075
734915
735507
736108
737092
449139
443845
442962
442091
441262
440360
439201
437529
435049
431474
426554
420187
412362
403340
393638
383976
378480
377870
337636
334458
370485
429775
495012
541556
564907
584704
606467
621821
630654
637625
644355
650880
657450
664345
670725
676363
681266
685738
689712
693205
695729
697276
698444
698856
698583
697488
695460
692821
688085
681799
674432
665891
656051
642972
625716
606941
588921
568042
554925
562047
583236
613684
638832
658274
672291
679881
680453
675745
668577
655967
639806
626631
616369
605159
591839
576560
560797
546451
533276
521106
508725
496648
484987
473987
463671
454019
445118
436817
429290
422291
416068
410507
405600
401321
397584
394269
391383
388897
386769
384940
383354
382000
380852
379878
379037
378294
377631
377041
376541
376107
375734
375404
375086
374788
374516
374287
374157
374121
374148
374207
374416
374834
375524
376410
377618
379079
380893
382869
385039
387257
389459
391043
391527
391478
391609
391642
390955
390344
392252
394544
394723
394818
394937
395038
395139
395232
395319
395399
395470
395528
395571
395588
395438
394220
391282
387198
382975
379769
378271
377644
376903
376003
374956
373817
372677
371674
370983
370806
371363
372850
375402
378953
383231
387857
392464
396792
400720
404220
407309
410035
412432
414576
416515
418233
419765
421039
422256
423212
424297
425064
425834
427093
300012
298460
297604
296827
296097
295300
294270
292777
290542
287275
282688
276577
268757
259200
248088
235736
226580
221601
196638
197447
228916
277966
333205
372815
392309
405490
420402
431398
437097
441117
445108
449151
453343
457888
462165
465902
469102
471986
474531
476736
478278
479041
479540
479464
478921
477764
475924
473691
469889
464725
458691
451791
443949
433549
418993
402231
384912
359755
333474
330229
342110
360052
374683
385934
394060
398430
398729
395939
391712
384324
374877
367175
361158
354584
346782
337841
328626
320242
312539
305421
298181
291123
284311
277888
271866
266234
261043
256207
251823
247755
244146
240928
238100
235643
233502
231614
229985
228598
227426
226425
225571
224861
224277
223805
223414
223082
222798
222556
222370
222228
222127
222055
221991
221937
221892
221865
221895
221982
222102
222223
222417
222728
223197
223775
224541
225460
226598
227844
229220
230656
232137
233289
233754
233848
234057
234206
233830
233393
234569
236099
236308
236424
236561
236676
236785
236880
236965
237034
237087
237116
237117
237078
236912
236090
234212
231602
228835
226573
225224
224286
223164
221847
220367
218812
217311
216043
215226
215100
215941
218017
221533
226411
232244
238464
244537
250097
254990
259208
262803
265868
268483
270758
272768
274521
276060
277330
278523
279459
280503
281250
281981
283185
214822
214078
213359
212752
212192
211581
210789
209618
207854
205256
201568
196569
190019
181699
171481
158867
147504
138277
121028
123937
150425
188083
232440
266478
284376
293869
304453
312951
317145
319664
322136
324763
327569
330718
333775
336449
338715
340741
342535
344088
345205
345680
345972
345867
345445
344593
343242
341703
339098
335360
330950
325981
320551
313522
302899
289951
276704
254936
221207
206665
213145
224656
233713
240589
245552
248179
248315
246533
243862
239256
233397
228622
224872
220771
215915
210362
204653
199462
194690
190276
185790
181421
177209
173241
169524
166052
162855
159881
157191
154704
152509
150563
148867
147405
146140
145039
144108
143337
142705
142177
141746
141411
141163
140994
140879
140803
140754
140732
140748
140796
140872
140971
141072
141174
141273
141375
141511
141682
141863
142025
142218
142478
142833
143252
143789
144428
145218
146089
147061
148106
149228
150153
150585
150733
150971
151144
150869
150511
151348
152465
152630
152724
152832
152915
152986
153037
153068
153076
153055
152999
152900
152745
152475
151752
150305
148332
146187
144281
142881
141663
140239
138634
136901
135150
133528
132221
131444
131437
132494
134907
138900
144395
150937
157883
164615
170690
175919
180305
183918
186889
189341
191407
193188
194714
196035
197117
198117
198904
199760
200388
200980
201973
159305
158492
157924
157455
157032
156571
155975
155093
153764
151802
149009
145202
140181
133620
125314
114292
103017
90349.5
77184.7
80725.6
101076
128136
162590
192382
210260
218194
226211
233252
236762
238519
240079
241799
243687
245898
248137
250121
251787
253264
254577
255719
256582
256919
257106
257025
256726
256137
255178
254169
252485
249888
246759
243286
239709
235378
228352
219267
210427
195160
162191
136162
137902
145955
151906
156304
159448
161062
161094
159886
158105
155109
151335
148262
145827
143160
140014
136432
132765
129437
126375
123539
120660
117862
115170
112639
110272
108067
106042
104165
102473
100922
99566.7
98379.2
97363.6
96502.1
95768.5
95148.9
94649.2
94263.3
93971.1
93742.5
93582.5
93492.4
93466
93497.5
93566.3
93658.3
93764.3
93885.4
94033.9
94203.8
94393.8
94597.1
94794.7
94983.7
95159.6
95327.5
95513.4
95717.4
95912.8
96075.4
96245.3
96457.1
96728.9
97038.2
97428.4
97893.9
98472.4
99115.7
99844.3
100651
101540
102267
102583
102686
102873
102967
102652
102326
103012
103835
103863
103878
103898
103895
103874
103828
103756
103653
103512
103327
103089
102787
102377
101632
100352
98679.9
96853.3
95156.3
93776
92492.8
91051.2
89496.2
87886.4
86323.3
84929.3
83861
83300.8
83458.5
84584.3
86920.3
90626.2
95682.1
101785
108418
114993
121008
126190
130507
133988
136743
138934
140722
142222
143486
144561
145439
146232
146861
147525
148028
148481
149259
120796
119640
119223
118856
118530
118178
117725
117058
116053
114572
112467
109595
105810
100825
94507.9
85622.4
75970
61733.9
50857.5
54170.2
68571.4
87025.9
112356
138120
156580
164375
171018
177205
180464
181897
182920
184047
185307
186855
188510
190013
191266
192368
193344
194199
194883
195141
195260
195198
194984
194583
193907
193257
192217
190472
188296
185909
183631
181190
176913
170936
165698
156750
129512
95671.2
91261.5
97249.8
101496
104517
106615
107640
107622
106769
105528
103520
101031
99006.9
97379.3
95591.5
93497.4
91130.9
88727.7
86552.7
84549.9
82691.1
80808.8
78986.5
77239.8
75602.8
74078.6
72664.4
71372.6
70183.2
69119.7
68161
67338.7
66635.6
66055.5
65579.5
65188.9
64882.2
64663.9
64529.2
64456.3
64420.5
64435.2
64501
64614.1
64767.5
64941.8
65125
65310.1
65501.3
65710.2
65930.4
66160.8
66392.6
66608.1
66805.2
66980.2
67140.9
67309.9
67482.4
67630.8
67739.7
67848.6
67988.9
68169.7
68375.4
68642.8
68971.4
69389.6
69859.2
70402.5
71018.8
71692.6
72185.5
72308.2
72289.6
72357.8
72308
71897.1
71594.9
72196
72765.6
72617.6
72528
72439.3
72334.4
72212.1
72064.8
71892.1
71687.4
71446.6
71163.5
70830.7
70440.7
69964.6
69245.6
68140.8
66765.8
65293.2
63925.6
62792.8
61744.5
60612.1
59435.7
58258.3
57149.4
56193.9
55508.7
55233.1
55529.6
56567.4
58509.4
61436.1
65381
70245.8
75754
81484
86958.2
91823.7
95898.2
99213.3
101813
103839
105446
106756
107837
108739
109470
110115
110629
111153
111564
111915
112534
93150.8
91659.8
91380.9
91089.4
90831.1
90554.8
90202.4
89689
88919.6
87788.6
86186.9
84008.6
81154.9
77396.5
72686.6
65834.9
58201.4
44503.2
35061.9
37755
47450.4
59571.2
76964.4
97798.6
116236
124774
130812
136517
139772
141147
141894
142650
143486
144561
145790
146948
147911
148753
149491
150144
150697
150912
150989
150945
150791
150520
150047
149635
149031
147907
146434
144825
143427
142228
139919
136298
133650
129706
109612
73725.9
61475
65588.7
68898.6
71243.1
72807
73541.7
73542.3
72940.6
72053.3
70684.7
69024.3
67673.2
66560.6
65335
63916.2
62333.7
60747.1
59317.9
57999.2
56772.2
55535
54345
53211.7
52155.7
51178.9
50279.1
49464.6
48722.9
48070
47498.2
47024.2
46637.3
46339.2
46109.5
45936.5
45826.4
45781.3
45795.6
45844.6
45910.6
46014.6
46153.1
46323.8
46516.7
46713.6
46905.9
47090.1
47274.1
47468.3
47664.1
47860.5
48046.5
48206.5
48341.7
48451
48545.9
48644.5
48736.1
48795.3
48817.9
48844.8
48901.4
48990
49098.8
49261.1
49475.4
49762.6
50088.9
50476.8
50921.2
51384.1
51635.7
51578
51432.6
51383.6
51207.8
50752.8
50505.2
51023.6
51380.1
51122.8
50967.1
50819
50662.4
50495.9
50311.7
50109.8
49885
49634.9
49355.8
49043.1
48693.2
48287.3
47722.8
46903.5
45918.2
44889.7
43954.6
43195.5
42511.5
41792.2
41060.6
40343.7
39685.2
39143
38799.2
38748.5
39100.2
39956.8
41429.5
43545.1
46341.5
49827.4
53911.5
58384.7
62918.9
67178.5
70847
73947.6
76431.4
78368.9
79882.7
81088.3
82062.9
82860.2
83501
84050.3
84490.6
84921.3
85269.4
85552.8
86060.1
72820.8
71151.5
70985.2
70751.8
70541.3
70319.6
70040.6
69639.1
69041.8
68168.1
66937.8
65272.7
63111.5
60279.4
56798.8
51641.3
45845.3
33996.4
25599.4
27525.6
33947.9
41781.2
53099.7
68401.5
85172.3
94698.5
100643
106128
109541
111017
111681
112225
112787
113530
114448
115350
116110
116770
117343
117855
118312
118510
118569
118545
118438
118264
117942
117691
117380
116705
115756
114710
113903
113490
112527
110621
109711
109467
96087.7
62528.5
42844.9
44392
46973.3
49000.7
50373.7
51052.8
51160.1
50787.1
50164.8
49239.1
48136.1
47230.9
46456.9
45603.6
44634.3
43575.4
42533.6
41599.6
40733.5
39924.5
39114.9
38343.7
37615.9
36942.5
36324.9
35760.7
35256.4
34803.9
34415
34089.9
33833.6
33639.9
33507.2
33414.9
33358.3
33347.8
33383.3
33456.4
33540.5
33627.5
33744.1
33881.1
34037.4
34199.4
34351.5
34489.6
34615
34738.4
34868.2
34993.2
35112.1
35213.2
35284.3
35330.6
35354.4
35368.8
35386.9
35393.2
35368.8
35319.7
35283.9
35278.6
35302.8
35347.2
35440.1
35577.1
35772.5
35995.4
36266.3
36571.3
36858.8
36929
36791.2
36585.7
36483.2
36270
35875.7
35721.6
36142.3
36352.4
36104.8
35954.6
35823.9
35688.8
35552.9
35407.7
35254.4
35089
34910.5
34716.8
34505.4
34274.6
34012
33652
33132.4
32512.4
31875.8
31310.8
30869.4
30487.3
30092.3
29695.6
29315.1
28978.5
28725.1
28607
28683.9
29023.9
29689.7
30764.7
32248
34162.8
36544.5
39380.6
42599.5
46040.5
49479.8
52615.1
55359
57670.3
59525.1
60987.7
62142.3
63063.3
63804.4
64394.7
64887.4
65282.4
65653
65959.2
66198.3
66628.4
57498.5
55902.5
55813.7
55627.5
55453
55272.5
55049.2
54732.8
54266.5
53588.7
52640.6
51365.4
49728.8
47599.5
45047.5
41234.4
36945
27334.6
19780.1
20969.5
25226.2
30292.4
37456.2
47868.8
61281.5
71225.7
77340.8
82791.9
86467.1
88163.6
88890.2
89343.7
89744.4
90260.1
90950.4
91660.9
92276.2
92808.4
93269.5
93682.7
94070.2
94264.9
94325.3
94325
94259.6
94160.3
93953.6
93814.7
93700.9
93346.2
92788.2
92156.3
91742.8
91815.9
91743.2
91041.1
91174.2
93701.5
85927
56990.8
32159.6
30268
31962.7
33656.4
34960.3
35724.9
36024.8
35907.5
35530.6
34943.9
34235.2
33634.5
33089.4
32491.3
31831.3
31131.6
30458.4
29853.9
29285.5
28750.8
28222
27723.9
27257.7
26827.7
26435.5
26078.9
25763.2
25483.8
25250.2
25065.9
24927.5
24831.9
24774.1
24736
24718.9
24736.4
24784
24851
24912.6
24970.4
25053.6
25147.1
25250.7
25348.5
25429.1
25493.2
25546.1
25599.3
25658.4
25710.7
25754.7
25779.9
25778.4
25758.9
25725.3
25689.4
25659
25619.3
25557.6
25484.2
25431.4
25409.6
25414.3
25439.5
25507.1
25609.9
25756.9
25921.3
26119.3
26331
26504.5
26492.7
26370.7
26184.3
26094.7
25922.4
25650.3
25592.9
25917.9
26048.3
25879.4
25776.8
25700.8
25620.4
25544.5
25464.1
25381.2
25293.1
25199.1
25098.1
24988.5
24869.3
24731.9
24534.7
24236.3
23874
23505.1
23187.8
22956.7
22771.9
22585.4
22401.8
22233
22095.9
22016.3
22024.5
22157.6
22457.4
22964
23742.8
24780.2
26086.1
27695.8
29617.9
31837.8
34298
36887.7
39405.4
41723.7
43763.1
45473.9
46868.8
47984.5
48875.2
49587
50151
50611.2
50979.2
51311.1
51588.8
51798.5
52172.6
45692
44401.7
44356.1
44209.4
44063.4
43915.3
43736.1
43486.7
43123.5
42599.7
41872.8
40901.9
39672.1
38085.6
36240.6
33472.6
30373.8
22892.1
16039.8
16605.7
19431.2
22726
27215.5
33982
43587.8
52711.8
58888.2
64384.4
68370.8
70392.2
71294.7
71760
72088.7
72462.9
72988.4
73554
74065
74505.4
74892.3
75235.3
75573.5
75771.5
75844
75872.2
75842.9
75802.3
75684.6
75624
75642.6
75510.8
75241.9
74911.7
74758.6
75115.8
75623.6
75723.3
76460
80929
77652.6
54322.8
26807.5
21214.9
21853.8
23009.2
24124
24943.7
25443.4
25600.8
25486.7
25189.6
24776
24390.8
24005.7
23589.9
23149.1
22698.5
22271.8
21879.1
21497.6
21134.2
20781
20451
20142.4
19855.9
19593.3
19353.6
19141.6
18955.6
18803.2
18688.7
18603.2
18545.2
18508.1
18478.1
18461.4
18470.9
18499.3
18534.4
18557.1
18575.6
18617.7
18664
18715.8
18756.4
18780.1
18790.8
18795.6
18804.2
18819.7
18829.6
18832.4
18820.9
18791.7
18752.5
18707.3
18665
18629.5
18589.6
18537.1
18481.9
18448.3
18442
18459.1
18493.9
18562.9
18657.5
18783.6
18919.3
19076
19232.6
19345.7
19323.4
19248.3
19115.6
19062.7
18951.9
18793
18803.8
19051.3
19142
19049.6
18995.3
18967.3
18934
18906.9
18877.5
18848.1
18816.8
18783
18746.5
18706.1
18661
18605.4
18512.3
18353.2
18151.8
17948.4
17782.9
17679.6
17613.7
17551.7
17494.7
17450
17427.8
17443.4
17515.1
17665
17919.1
18303.9
18871.3
19602.4
20498.8
21589.9
22887.4
24394.4
26099
27959.3
29868.3
31732.5
33455.8
34971.7
36245.5
37299.4
38155.4
38845.8
39394.1
39835.6
40187.8
40494.2
40752.3
40941.9
41273.9
36552
35599.1
35576
35462.4
35339.9
35218.1
35074.5
34879
34598.4
34197.8
33647
32917.5
32007.4
30845.9
29543.9
27578.1
25414.2
19781.8
13530.2
13594.1
15457
17603.5
20403.7
24683.1
31156.3
38376.7
44114.6
49535.7
53809.8
56222.7
57392.7
57965.4
58299.2
58602.2
59015.6
59475.1
59909.6
60285.5
60623.6
60915.7
61219.4
61420.8
61512.8
61569.8
61573.1
61579.5
61529.7
61522.2
61630.3
61646.5
61587.1
61469.9
61501.2
62005.6
62833.6
63500.7
64520.1
70168.2
70503.3
53018.1
24697.8
15766.8
15271.2
15815.6
16570.2
17270.6
17837.3
18204.3
18344.5
18306.2
18120.1
17893.8
17627.2
17347.6
17066.1
16787.3
16520.5
16257.2
15987.1
15726.4
15478.7
15247.9
15030.7
14825.7
14636
14461.6
14307.2
14173.1
14064.8
13985.5
13923.8
13879.1
13845.1
13812.7
13790.8
13788.8
13798.3
13807.9
13805.7
13802
13820.1
13839.2
13862.4
13873.9
13873.2
13865.7
13857.1
13853.8
13857.6
13857.6
13853.6
13840.3
13817
13789.5
13760.7
13736.3
13718.2
13699
13673.6
13649.2
13642.6
13658.9
13693.7
13742.4
13817.1
13909.5
14023.3
14141.4
14271.4
14393.7
14475.9
14466.3
14427.5
14345.3
14323.2
14261.4
14180.2
14228.8
14418.3
14488
14445.6
14425.7
14427.3
14424.2
14427.2
14428.9
14431.8
14434.4
14436.5
14438.1
14438.3
14436.7
14429.3
14398.2
14322.8
14218.5
14115
14040.1
14011.9
14014.8
14024.1
14038.7
14063.1
14102.8
14167.1
14266.4
14413.9
14625.9
14919.9
15337.5
15858.2
16478.5
17222.5
18100.3
19119
20283.2
21583.5
22971.3
24397
25789.9
27080.4
28209.7
29171.5
29971.4
30631.7
31163.3
31591.5
31933.9
32223.4
32467.7
32643.7
32943.4
29516.6
28766.7
28756.9
28670.6
28568
28468
28353.3
28201.4
27987.6
27686.1
27276.4
26739.2
26081.7
25254.3
24368.1
23016.5
21587.8
17504.4
11791
11453.1
12653.7
14041.9
15766.7
18421.4
22666.8
27801.9
32486.3
37446.2
41842
44645.4
46150
46914.9
47326
47620.6
47970.8
48358.8
48738.3
49070.7
49376.7
49634.4
49913
50115.7
50231.4
50313.4
50348
50392.1
50393.5
50424.9
50584.9
50695.2
50786.6
50808
50984.1
51544.5
52514.7
53542.7
54678.6
60673.7
64160.3
52178.6
24636.5
12753.8
11099.5
11119.9
11487.5
11932.9
12383.7
12796.2
13093.9
13265.2
13244.1
13136.7
12965.5
12792.5
12629
12468.2
12304
12120.8
11921.2
11727.4
11548.7
11382.4
11224.7
11074.1
10934.2
10806
10693.7
10598.4
10523.1
10469.7
10426.5
10393.8
10366.6
10339.7
10321.8
10319.4
10323.4
10325
10318.9
10313.4
10326.7
10339
10355
10360.9
10360.2
10356.5
10353.9
10356.4
10364.7
10370.5
10374
10371.6
10363.8
10354.4
10345.6
10340.9
10341.1
10341.7
10339.6
10339.4
10353.8
10385.7
10431.5
10488.2
10564
10652
10754.4
10857.6
10966.7
11064.7
11129.6
11132.8
11114.4
11069
11066.3
11037.1
11003.9
11068.6
11216.4
11274.1
11260.6
11260.4
11279.2
11292.7
11312.5
11331.3
11352
11373.2
11395
11417.5
11440.2
11462.7
11482.3
11487
11461
11415
11371.1
11349.7
11364.2
11404.9
11452.7
11505.5
11565.9
11636.6
11722.9
11830.6
11967.3
12143.1
12369.6
12680.1
13054.8
13487.2
13996.9
14592
15279.3
16068.7
16963
17944.4
18992.1
20067
21116.5
22083.6
22937.8
23671.3
24285.2
24791.1
25203.7
25537.3
25814.4
26049
26215.8
26490.5
23992.9
23401.1
23397.9
23333.6
23248.3
23166.2
23075.1
22958.6
22798.7
22576.9
22280.1
21895.8
21437.1
20870
20299.5
19420.9
18570.4
15757.6
10561.1
9898.33
10630.8
11508.4
12535.3
14140.8
16874.7
20323.3
23758.3
27771.1
31919.7
34989.5
36845
37867.5
38423.1
38769.3
39104.3
39454.1
39798.6
40104.3
40390.3
40628.2
40888.6
41091.6
41231.1
41332.7
41399.6
41469.3
41515.7
41572.7
41763.6
41921.3
42116.8
42229.2
42512.5
43074.6
44080
45282
46488.1
52126.8
58256
51098
25940.7
11363.5
8523.04
8108.04
8171.15
8363.4
8619.91
8927.99
9242.74
9512.33
9591.47
9564.22
9473.03
9384.02
9307.19
9227.05
9131.39
9005.64
8861.62
8722.73
8598.99
8484.5
8375.87
8271.89
8176.12
8089.96
8016.37
7956.8
7911.91
7882.92
7859.28
7842.18
7827.75
7813.55
7806.45
7811.77
7819.52
7824.86
7825.2
7827.2
7844.15
7858.57
7876.45
7886.07
7892.75
7897.96
7905.05
7915.96
7931.05
7943.93
7955.72
7963.27
7967.67
7971.58
7976.57
7985.2
7997.92
8011.25
8023.53
8038.82
8065.71
8105.42
8155.66
8214.31
8287.17
8368.37
8459.04
8548.78
8640.32
8720.15
8774.27
8785.47
8777.63
8757.12
8765.23
8756.81
8751.6
8819.9
8938.44
8988.7
8989.08
9001.6
9028.72
9051.03
9079.19
9106.66
9136.31
9166.92
9198.78
9231.97
9266.16
9301.16
9335.05
9359.64
9362.36
9350.86
9342.1
9351.16
9388.9
9448.72
9515.36
9586.5
9663.43
9747.11
9840.56
9946.63
10069.5
10215.1
10391
10624.2
10896.1
11198.9
11548.7
11952
12414.2
12945.8
13553.7
14234.6
14982.6
15780.5
16596.5
17387.9
18120.4
18775.4
19336.7
19811.5
20201.4
20522.8
20788.4
21014.9
21175
21430.6
19603.5
19145.9
19143.3
19096.4
19026.2
18958.9
18887.1
18799.2
18682.6
18524.4
18317.2
18053.9
17750.3
17383.5
17051.6
16537.9
16139.4
14358.6
9685.43
8755.08
9145.79
9672.62
10234.5
11159
12882.9
15131.6
17477.3
20391.9
23830.6
26870.3
28993.1
30295.7
31048.9
31502.6
31870.2
32216
32546.6
32841.2
33118.1
33348.2
33597.5
33801.2
33961.8
34079.3
34178.8
34264.6
34351
34422.4
34636.8
34806.5
35072.5
35232.2
35596.4
36124.2
37120.2
38322
39642.6
44348.7
52565.9
49376
28555.5
11024.7
6989.77
6190.91
6030.51
6038.06
6127.87
6291.75
6540.46
6789.11
6900.95
6918.89
6886.6
6858.02
6839.82
6812.06
6763.99
6685.55
6591.87
6502.7
6426.29
6356.35
6290.36
6227.35
6170.44
6120.9
6080.65
6050.99
6031.16
6022.49
6015.74
6013.14
6011.53
6009.76
6013.81
6026.88
6039.86
6051.07
6059.14
6069.02
6089.75
6107.23
6127.84
6141.84
6154.83
6166.81
6180.68
6197.22
6216.52
6233.86
6250.6
6264.19
6275.86
6287.61
6300.6
6316.74
6336.23
6356.36
6376.44
6400.09
6433.21
6475.79
6526.29
6583.43
6651
6724.35
6803.82
6881.44
6958.59
7024.95
7071.48
7086.3
7084.55
7079.79
7094.66
7098.53
7109
7174.54
7272.08
7316.49
7324.11
7344
7374.31
7400.73
7432.39
7463.58
7497.02
7531.62
7567.77
7605.55
7644.75
7685.26
7725.82
7760.65
7779.35
7787.76
7799.1
7824.84
7873.9
7941.64
8015.57
8093.43
8175.68
8262.33
8354.86
8454.34
8562.74
8683.31
8820.88
8997.42
9196.16
9408.63
9648.16
9919.97
10228.4
10583
10991.2
11455.9
11977.9
12552.6
13163.5
13783.3
14384.5
14946.4
15446.8
15884.3
16249.4
16555.7
16807.9
17025.9
17179.5
17419.8
16109.8
15741
15736.6
15702.7
15645.9
15591
15534.8
15469.8
15387.6
15279.8
15143
14974.3
14790.2
14576.7
14423.7
14188.5
14140
13191.1
9066.8
7911.7
8041.94
8321.92
8564.76
9042.21
10093.8
11527.3
13056.1
15030.5
17551.7
20165.1
22326.9
23847.7
24814.2
25417.2
25861.7
26238.5
26578.7
26878.1
27157.3
27390
27636
27842.3
28021.5
28153.5
28283.1
28379.8
28502.5
28579.2
28815.8
28974.4
29288.8
29456
29884.8
30346.5
31338.8
32377.5
33915.2
37286.4
46927.3
47076.2
31600.4
11494.4
6176.95
4974.75
4650.77
4532.07
4509.11
4560.1
4724.51
4904.75
5006.25
5040.91
5044.28
5051.95
5068.05
5070.2
5052.82
5011.4
4959.33
4910.42
4870.45
4834.5
4801.02
4769.09
4741.35
4718.71
4702.44
4693.74
4690.85
4696.18
4700.81
4708.45
4715.99
4723.23
4734.88
4752.63
4769.1
4784.51
4797.97
4812.94
4835.51
4854.67
4876.65
4893.27
4909.85
4925.54
4942.94
4962.15
4983.18
5002.51
5021.46
5038.02
5053.45
5069.3
5086.42
5106.23
5128.76
5151.95
5175.72
5203.16
5238.43
5280.92
5329.43
5383.24
5444.69
5510.15
5579.48
5646.65
5712.25
5768.45
5808.85
5824.83
5827.75
5832.24
5850.77
5861.83
5880.79
5940.69
6022.21
6061.69
6073.24
6096.93
6127.58
6155.36
6187.68
6219.68
6253.89
6289.3
6326.37
6365.14
6405.51
6447.42
6490.07
6529.27
6556.21
6575.57
6597.79
6631.83
6685.1
6754.24
6828.82
6906.77
6988.08
7072.17
7159.57
7250.27
7344.84
7444.77
7552.99
7687.45
7833.34
7982.12
8144.92
8326
8528.77
8761.48
9030.97
9342.42
9699.15
10102.5
10545.6
11013.1
11486.3
11947.7
12376.6
12766.8
13102.5
13391.7
13630.1
13838.7
13984.7
14211.7
13312.6
12996.1
12988.9
12964.5
12919.3
12874.8
12831.2
12784.4
12729.2
12660.7
12578.3
12482.6
12389.1
12293.3
12270.6
12244.2
12459.8
12171.1
8638.53
7294.76
7214.69
7314.26
7331.83
7512.43
8114.28
8999.61
9962.06
11240.8
12953.4
14907.2
16789.1
18347.6
19468.6
20226.6
20776.8
21215.3
21588.8
21910
22203.6
22448.8
22700.1
22912.8
23109.2
23255.5
23411.9