/*--------------------------------*- C++ -*----------------------------------*\
| =========                 |                                                 |
| \\      /  F ield         | OpenFOAM: The Open Source CFD Toolbox           |
|  \\    /   O peration     | Version:  2212                                  |
|   \\  /    A nd           | Website:  www.openfoam.com                      |
|    \\/     M anipulation  |                                                 |
\*---------------------------------------------------------------------------*/
FoamFile
{
    version     2.0;
    format      ascii;
    arch        "LSB;label=32;scalar=64";
    class       volScalarField;
    location    "1000";
    object      k;
}
// * * * * * * * * * * * * * * * * * * * * * * * * * * * * * * * * * * * * * //

dimensions      [0 2 -2 0 0 0 0];

internalField   nonuniform List<scalar> 
3600
(
5.12414e-08
2.37957e-07
6.31895e-07
1.24956e-06
2.11731e-06
3.25758e-06
4.67707e-06
6.35875e-06
8.2628e-06
1.0336e-05
1.25239e-05
1.47801e-05
1.70708e-05
1.93747e-05
2.16807e-05
2.3985e-05
2.62886e-05
2.85948e-05
3.09078e-05
3.32322e-05
3.55723e-05
3.79316e-05
4.0313e-05
4.27186e-05
4.51497e-05
4.76068e-05
5.00898e-05
5.25981e-05
5.51301e-05
5.76842e-05
6.02579e-05
6.28484e-05
6.54524e-05
6.80659e-05
7.06849e-05
7.33045e-05
7.59198e-05
7.8525e-05
8.11144e-05
8.36814e-05
8.62192e-05
8.87206e-05
9.11778e-05
9.35828e-05
9.59269e-05
9.8201e-05
0.000100396
0.000102502
0.00010451
0.000106407
0.000108185
0.000109832
0.000111338
0.00011269
0.000113878
0.000114892
0.000115721
0.000116356
0.000116786
0.000117005
2.37957e-07
7.64876e-08
2.11005e-07
5.49305e-07
1.15764e-06
2.09697e-06
3.37638e-06
4.94106e-06
6.70038e-06
8.56751e-06
1.04822e-05
1.24138e-05
1.43537e-05
1.63066e-05
1.82832e-05
2.02964e-05
2.23585e-05
2.44804e-05
2.6671e-05
2.89374e-05
3.12851e-05
3.37178e-05
3.6238e-05
3.88469e-05
4.15448e-05
4.43308e-05
4.72035e-05
5.01604e-05
5.31985e-05
5.63141e-05
5.9503e-05
6.27603e-05
6.60799e-05
6.94556e-05
7.28805e-05
7.63466e-05
7.98458e-05
8.33685e-05
8.69054e-05
9.04451e-05
9.39764e-05
9.7487e-05
0.000100964
0.000104393
0.00010776
0.000111049
0.000114244
0.000117329
0.000120285
0.000123095
0.00012574
0.000128201
0.000130459
0.000132495
0.000134289
0.000135825
0.000137083
0.000138047
0.000138703
0.000139036
6.31895e-07
2.11005e-07
8.49369e-07
2.78139e-06
6.5902e-06
1.27301e-05
2.12446e-05
3.16887e-05
4.33708e-05
5.56624e-05
6.81563e-05
8.06697e-05
9.31774e-05
0.000105741
0.000118458
0.00013143
0.00014475
0.000158498
0.000172735
0.000187509
0.000202853
0.00021879
0.000235333
0.000252486
0.000270246
0.000288603
0.000307543
0.000327046
0.000347086
0.000367636
0.000388663
0.000410132
0.000431998
0.000454217
0.000476741
0.000499515
0.000522482
0.000545578
0.000568741
0.000591893
0.000614961
0.000637864
0.000660519
0.000682833
0.000704713
0.000726058
0.000746768
0.000766737
0.00078585
0.000803995
0.000821055
0.000836916
0.000851456
0.000864548
0.000876081
0.000885942
0.000894018
0.000900205
0.000904408
0.000906547
1.24956e-06
5.49305e-07
2.78139e-06
9.94881e-06
2.48516e-05
4.93869e-05
8.3424e-05
0.000124709
0.00017015
0.000217152
0.000264153
0.000310522
0.000356236
0.000401577
0.000446938
0.000492707
0.000539222
0.000586753
0.000635501
0.000685606
0.000737154
0.000790191
0.000844721
0.000900725
0.000958156
0.00101695
0.00107702
0.00113828
0.00120061
0.00126391
0.00132805
0.00139291
0.00145833
0.00152416
0.00159028
0.00165649
0.00172266
0.00178859
0.00185411
0.00191904
0.00198318
0.00204632
0.00210828
0.00216883
0.00222775
0.00228481
0.00233979
0.00239245
0.00244254
0.00248981
0.00253401
0.0025749
0.00261221
0.00264566
0.00267502
0.00270005
0.00272049
0.00273612
0.00274672
0.00275211
2.11732e-06
1.15764e-06
6.5902e-06
2.48516e-05
6.49032e-05
0.000132385
0.000224978
0.000333568
0.000448046
0.000561333
0.000669993
0.000773199
0.000871543
0.000966181
0.00105835
0.00114916
0.0012395
0.00133003
0.00142121
0.00151337
0.00160667
0.00170121
0.00179697
0.00189393
0.00199197
0.00209099
0.00219083
0.00229134
0.00239235
0.00249369
0.00259516
0.00269661
0.00279781
0.00289859
0.00299875
0.00309809
0.00319641
0.0032935
0.00338916
0.00348315
0.00357527
0.00366529
0.00375298
0.0038381
0.0039204
0.00399963
0.00407554
0.00414786
0.00421631
0.00428062
0.0043405
0.00439569
0.00444587
0.00449074
0.00453001
0.0045634
0.00459063
0.00461141
0.0046255
0.00463265
3.25758e-06
2.09697e-06
1.27301e-05
4.93869e-05
0.000132385
0.000272896
0.000459108
0.000664611
0.000867081
0.00105503
0.00122534
0.00137932
0.00152001
0.00165072
0.00177441
0.00189348
0.00200974
0.00212452
0.00223873
0.00235299
0.00246767
0.00258296
0.00269894
0.0028156
0.00293285
0.00305058
0.00316865
0.00328688
0.0034051
0.00352312
0.00364076
0.00375785
0.00387416
0.00398952
0.00410372
0.00421657
0.00432788
0.00443742
0.00454501
0.00465042
0.00475343
0.00485383
0.00495138
0.00504586
0.005137
0.00522456
0.0053083
0.00538793
0.00546318
0.00553378
0.00559942
0.00565984
0.00571472
0.00576373
0.0058066
0.00584302
0.00587271
0.00589536
0.00591069
0.00591849
4.67707e-06
3.37638e-06
2.12447e-05
8.34241e-05
0.000224978
0.000459109
0.000752691
0.00105545
0.00133538
0.00158129
0.00179367
0.00197768
0.00213964
0.0022854
0.00241986
0.00254684
0.00266921
0.002789
0.00290765
0.0030261
0.00314493
0.00326446
0.00338483
0.00350605
0.00362804
0.00375066
0.00387373
0.00399705
0.00412043
0.00424363
0.00436646
0.0044887
0.00461012
0.00473051
0.00484967
0.00496736
0.0050834
0.00519754
0.0053096
0.00541933
0.00552651
0.00563091
0.00573231
0.00583046
0.0059251
0.00601598
0.00610285
0.00618542
0.00626343
0.00633658
0.00640457
0.00646713
0.00652394
0.00657467
0.00661903
0.0066567
0.00668741
0.00671083
0.00672669
0.00673475
6.35875e-06
4.94106e-06
3.16887e-05
0.00012471
0.000333568
0.000664612
0.00105545
0.00143711
0.00177562
0.00206327
0.00230412
0.00250631
0.00267855
0.00282871
0.00296334
0.00308761
0.00320548
0.0033198
0.00343262
0.00354532
0.00365877
0.00377348
0.00388966
0.00400738
0.00412654
0.00424698
0.00436846
0.00449074
0.00461355
0.0047366
0.00485964
0.0049824
0.0051046
0.00522598
0.0053463
0.0054653
0.00558274
0.00569838
0.00581198
0.0059233
0.00603208
0.00613809
0.00624108
0.0063408
0.00643698
0.00652934
0.00661764
0.00670159
0.0067809
0.00685527
0.0069244
0.00698801
0.00704577
0.00709735
0.00714245
0.00718076
0.00721198
0.0072358
0.00725192
0.00726012
8.2628e-06
6.70038e-06
4.33708e-05
0.00017015
0.000448046
0.000867081
0.00133538
0.00177562
0.00215797
0.00247847
0.00274309
0.00296103
0.00314197
0.00329488
0.00342747
0.00354608
0.00365572
0.00376021
0.00386234
0.00396411
0.00406685
0.00417139
0.00427817
0.00438736
0.00449891
0.00461268
0.00472839
0.00484575
0.00496441
0.00508403
0.00520426
0.00532478
0.00544522
0.00556527
0.00568463
0.00580298
0.00592004
0.00603552
0.00614915
0.00626065
0.00636975
0.00647617
0.00657966
0.00667992
0.0067767
0.00686968
0.00695862
0.0070432
0.00712314
0.00719812
0.00726783
0.00733199
0.00739027
0.00744231
0.00748782
0.00752648
0.00755799
0.00758203
0.00759831
0.00760658
1.0336e-05
8.56752e-06
5.56624e-05
0.000217152
0.000561334
0.00105503
0.00158129
0.00206327
0.00247847
0.00282651
0.00311383
0.00334909
0.00354159
0.00370035
0.00383355
0.00394829
0.00405048
0.00414486
0.00423509
0.00432394
0.00441336
0.00450468
0.00459872
0.00469592
0.0047964
0.0049001
0.00500678
0.00511613
0.00522777
0.00534129
0.00545627
0.00557231
0.00568896
0.00580585
0.00592257
0.00603877
0.00615409
0.00626819
0.00638074
0.00649142
0.00659992
0.00670593
0.00680916
0.0069093
0.00700605
0.0070991
0.00718816
0.00727292
0.00735307
0.00742828
0.00749824
0.00756265
0.00762118
0.00767346
0.00771918
0.00775803
0.0077897
0.00781386
0.00783022
0.00783854
1.25239e-05
1.04822e-05
6.81564e-05
0.000264153
0.000669993
0.00122534
0.00179367
0.00230412
0.00274309
0.00311383
0.00342273
0.00367713
0.00388491
0.00405416
0.00419277
0.00430801
0.00440632
0.00449317
0.00457304
0.00464948
0.0047252
0.00480219
0.00488178
0.00496483
0.0050518
0.00514283
0.00523782
0.00533653
0.00543861
0.00554361
0.00565109
0.00576055
0.00587151
0.00598347
0.00609599
0.00620861
0.00632091
0.00643248
0.00654293
0.00665187
0.00675896
0.00686383
0.00696615
0.00706558
0.00716178
0.00725442
0.0073432
0.00742776
0.00750779
0.00758295
0.0076529
0.00771733
0.0077759
0.00782824
0.00787403
0.00791295
0.00794468
0.00796889
0.00798528
0.00799362
1.47801e-05
1.24139e-05
8.06698e-05
0.000310522
0.0007732
0.00137933
0.00197769
0.00250631
0.00296103
0.00334909
0.00367713
0.00395098
0.00417662
0.00436055
0.0045096
0.00463061
0.00473001
0.00481366
0.00488662
0.00495315
0.00501671
0.00507998
0.00514496
0.00521305
0.00528515
0.00536177
0.00544308
0.00552901
0.00561932
0.00571361
0.00581145
0.00591231
0.00601566
0.00612096
0.00622766
0.00633524
0.0064432
0.00655105
0.00665834
0.00676461
0.00686944
0.00697243
0.00707318
0.00717132
0.00726647
0.00735826
0.00744634
0.00753036
0.00760996
0.00768479
0.00775449
0.00781874
0.00787718
0.00792943
0.00797516
0.00801404
0.00804575
0.00806994
0.00808633
0.00809467
1.70708e-05
1.43537e-05
9.31775e-05
0.000356236
0.000871544
0.00152001
0.00213964
0.00267855
0.00314197
0.00354159
0.00388491
0.00417662
0.00442081
0.00462207
0.00478565
0.00491733
0.00502305
0.00510856
0.00517919
0.00523968
0.0052941
0.00534579
0.00539743
0.00545104
0.00550808
0.00556953
0.00563595
0.00570756
0.00578434
0.00586604
0.00595231
0.00604266
0.00613656
0.00623341
0.00633265
0.00643367
0.0065359
0.00663878
0.00674177
0.00684435
0.00694603
0.00704633
0.00714481
0.00724104
0.00733459
0.00742503
0.00751201
0.00759512
0.00767397
0.00774819
0.00781741
0.00788126
0.0079394
0.00799141
0.00803695
0.00807569
0.0081073
0.00813143
0.00814777
0.00815609
1.93747e-05
1.63066e-05
0.000105741
0.000401578
0.000966182
0.00165072
0.00228541
0.00282871
0.00329488
0.00370035
0.00405416
0.00436055
0.00462207
0.00484138
0.00502196
0.00516811
0.00528476
0.00537712
0.00545037
0.0055094
0.00555868
0.00560207
0.00564285
0.00568367
0.00572659
0.00577313
0.00582433
0.00588083
0.00594291
0.00601059
0.00608368
0.00616182
0.00624452
0.00633123
0.00642135
0.00651425
0.00660929
0.00670585
0.00680332
0.00690111
0.00699865
0.00709539
0.00719082
0.00728445
0.00737579
0.00746437
0.00754978
0.00763157
0.00770933
0.00778265
0.00785112
0.00791436
0.007972
0.00802361
0.00806884
0.00810734
0.00813877
0.00816276
0.00817902
0.0081873
2.16807e-05
1.82832e-05
0.000118458
0.000446938
0.00105835
0.00177441
0.00241986
0.00296334
0.00342747
0.00383355
0.00419277
0.00450961
0.00478565
0.00502196
0.00522022
0.00538309
0.00551413
0.00561761
0.00569815
0.00576046
0.00580907
0.00584817
0.00588148
0.00591219
0.00594294
0.00597581
0.00601238
0.00605377
0.00610068
0.00615346
0.0062122
0.00627674
0.00634674
0.00642173
0.00650114
0.00658436
0.00667073
0.00675958
0.00685024
0.00694204
0.00703436
0.00712657
0.00721809
0.00730835
0.00739681
0.00748294
0.00756626
0.00764629
0.00772257
0.00779464
0.00786208
0.00792447
0.00798141
0.00803245
0.00807722
0.00811536
0.00814651
0.00817031
0.00818644
0.00819465
2.39851e-05
2.02964e-05
0.00013143
0.000492708
0.00114917
0.00189348
0.00254685
0.00308762
0.00354609
0.00394829
0.00430801
0.00463061
0.00491733
0.00516811
0.00538309
0.00556327
0.00571073
0.00582848
0.00592025
0.00599019
0.00604261
0.00608172
0.00611149
0.0061355
0.00615685
0.00617818
0.00620158
0.00622869
0.00626068
0.00629835
0.00634211
0.00639209
0.0064482
0.00651011
0.00657738
0.00664945
0.00672568
0.00680539
0.00688788
0.00697245
0.00705838
0.007145
0.00723166
0.0073177
0.00740253
0.00748554
0.00756619
0.00764395
0.0077183
0.00778876
0.00785484
0.0079161
0.00797211
0.00802238
0.00806654
0.0081042
0.00813497
0.0081585
0.00817445
0.00818257
2.62887e-05
2.23585e-05
0.000144751
0.000539223
0.0012395
0.00200974
0.00266921
0.00320548
0.00365573
0.00405048
0.00440633
0.00473002
0.00502305
0.00528477
0.00551413
0.00571073
0.00587512
0.00600897
0.00611484
0.00619604
0.00625633
0.00629968
0.00633002
0.00635114
0.00636646
0.00637905
0.00639149
0.00640592
0.00642401
0.00644701
0.00647576
0.00651075
0.00655219
0.0066
0.00665392
0.00671351
0.00677822
0.00684741
0.00692038
0.00699641
0.00707474
0.00715464
0.00723539
0.00731628
0.00739663
0.00747578
0.0075531
0.00762802
0.00769995
0.00776836
0.00783272
0.00789253
0.00794734
0.00799663
0.00803999
0.00807701
0.0081073
0.00813047
0.00814619
0.0081542
2.85948e-05
2.44804e-05
0.000158498
0.000586754
0.00133003
0.00212452
0.002789
0.0033198
0.00376021
0.00414486
0.00449317
0.00481366
0.00510856
0.00537712
0.00561761
0.00582848
0.00600897
0.00615936
0.00628097
0.00637606
0.00644757
0.00649893
0.00653382
0.00655597
0.00656895
0.00657609
0.00658038
0.00658439
0.00659027
0.00659973
0.00661407
0.0066342
0.00666068
0.00669377
0.00673345
0.00677948
0.00683145
0.00688883
0.00695096
0.00701714
0.00708661
0.0071586
0.00723234
0.00730706
0.00738202
0.00745647
0.00752974
0.00760117
0.00767011
0.00773598
0.00779819
0.0078562
0.0079095
0.00795756
0.00799991
0.00803613
0.0080658
0.00808852
0.00810395
0.00811181
3.09078e-05
2.6671e-05
0.000172735
0.000635503
0.00142122
0.00223874
0.00290766
0.00343263
0.00386234
0.0042351
0.00457304
0.00488662
0.00517919
0.00545037
0.00569815
0.00592025
0.00611484
0.00628097
0.00641872
0.00652918
0.00661431
0.00667679
0.00671977
0.00674669
0.00676105
0.0067663
0.00676564
0.006762
0.00675794
0.00675561
0.00675676
0.00676274
0.00677453
0.00679274
0.00681767
0.00684936
0.00688762
0.00693205
0.00698214
0.00703722
0.00709658
0.00715944
0.00722501
0.00729248
0.00736104
0.0074299
0.0074983
0.00756551
0.00763084
0.00769361
0.00775319
0.00780899
0.00786044
0.00790696
0.00794807
0.0079833
0.0080122
0.00803436
0.00804943
0.0080571
3.32322e-05
2.89375e-05
0.000187509
0.000685608
0.00151337
0.002353
0.0030261
0.00354533
0.00396411
0.00432394
0.00464948
0.00495316
0.00523969
0.00550941
0.00576046
0.0059902
0.00619605
0.00637606
0.00652918
0.00665534
0.00675545
0.00683126
0.00688521
0.00692021
0.00693949
0.00694638
0.00694418
0.00693602
0.00692474
0.00691289
0.00690263
0.00689574
0.00689362
0.00689729
0.00690743
0.00692439
0.00694825
0.00697886
0.00701584
0.00705868
0.00710673
0.00715926
0.00721549
0.00727458
0.00733569
0.00739797
0.00746061
0.00752281
0.0075838
0.00764286
0.00769927
0.00775239
0.00780159
0.00784625
0.00788584
0.00791986
0.00794782
0.00796929
0.0079839
0.00799135
3.55723e-05
3.12851e-05
0.000202853
0.000737156
0.00160667
0.00246767
0.00314493
0.00365878
0.00406686
0.00441336
0.00472521
0.00501672
0.0052941
0.00555868
0.00580907
0.00604261
0.00625634
0.00644757
0.00661431
0.00675545
0.00687084
0.00696122
0.00702817
0.00707394
0.00710124
0.00711312
0.00711276
0.00710332
0.00708785
0.00706914
0.00704972
0.00703175
0.00701705
0.00700705
0.00700281
0.00700507
0.00701422
0.0070304
0.00705346
0.00708308
0.00711874
0.0071598
0.00720552
0.00725509
0.00730765
0.00736233
0.00741825
0.00747457
0.00753044
0.00758509
0.00763772
0.00768763
0.00773413
0.00777655
0.00781431
0.00784685
0.00787368
0.00789432
0.00790838
0.00791556
3.79316e-05
3.37179e-05
0.000218791
0.000790192
0.00170121
0.00258296
0.00326447
0.00377348
0.0041714
0.00450468
0.00480219
0.00507999
0.0053458
0.00560208
0.00584817
0.00608172
0.00629968
0.00649893
0.00667679
0.00683126
0.00696122
0.00706642
0.00714753
0.00720596
0.00724379
0.00726358
0.00726822
0.00726073
0.00724419
0.00722155
0.00719556
0.00716874
0.00714324
0.0071209
0.00710319
0.00709123
0.00708577
0.00708728
0.0070959
0.00711155
0.00713389
0.00716245
0.00719656
0.00723549
0.00727839
0.0073244
0.0073726
0.0074221
0.00747201
0.00752147
0.00756966
0.00761577
0.00765906
0.00769881
0.00773437
0.00776515
0.00779061
0.00781025
0.00782366
0.0078305
4.03131e-05
3.62381e-05
0.000235334
0.000844724
0.00179698
0.00269895
0.00338484
0.00388967
0.00427818
0.00459873
0.00488178
0.00514497
0.00539743
0.00564286
0.00588148
0.0061115
0.00633003
0.00653383
0.00671977
0.00688521
0.00702817
0.00714753
0.007243
0.00731515
0.00736528
0.00739533
0.00740771
0.00740518
0.00739064
0.00736707
0.00733734
0.00730419
0.00727008
0.00723718
0.00720735
0.00718209
0.00716255
0.00714953
0.00714353
0.00714474
0.00715308
0.00716826
0.00718979
0.00721702
0.00724919
0.00728544
0.00732488
0.00736658
0.00740962
0.00745308
0.00749607
0.00753772
0.00757724
0.00761383
0.00764679
0.00767549
0.00769932
0.00771776
0.00773039
0.00773684
4.27187e-05
3.8847e-05
0.000252487
0.000900727
0.00189393
0.0028156
0.00350606
0.00400738
0.00438736
0.00469593
0.00496484
0.00521306
0.00545104
0.00568368
0.00591219
0.0061355
0.00635114
0.00655597
0.00674669
0.00692021
0.00707394
0.00720596
0.00731515
0.0074012
0.0074646
0.00750656
0.0075289
0.00753392
0.00752423
0.00750266
0.00747209
0.00743533
0.00739506
0.00735375
0.00731356
0.00727636
0.00724368
0.00721669
0.00719626
0.00718289
0.00717681
0.00717797
0.00718609
0.00720068
0.0072211
0.00724656
0.00727619
0.00730909
0.0073443
0.00738087
0.00741786
0.00745434
0.00748945
0.00752234
0.00755226
0.00757849
0.0076004
0.00761743
0.00762913
0.00763512
4.51497e-05
4.15448e-05
0.000270246
0.000958157
0.00199197
0.00293286
0.00362804
0.00412654
0.00449892
0.00479641
0.00505181
0.00528516
0.00550809
0.0057266
0.00594294
0.00615686
0.00636647
0.00656895
0.00676106
0.00693949
0.00710125
0.00724379
0.00736528
0.0074646
0.00754143
0.0075962
0.00763005
0.00764469
0.00764233
0.00762547
0.00759684
0.00755925
0.00751546
0.00746812
0.00741966
0.00737225
0.00732778
0.00728779
0.00725349
0.00722577
0.00720517
0.00719194
0.00718605
0.00718723
0.00719499
0.00720867
0.00722749
0.00725057
0.00727697
0.00730573
0.00733587
0.00736641
0.00739643
0.00742503
0.00745138
0.00747473
0.00749439
0.00750977
0.00752037
0.00752581
4.76068e-05
4.43308e-05
0.000288603
0.00101695
0.00209099
0.00305059
0.00375066
0.00424698
0.00461268
0.0049001
0.00514283
0.00536178
0.00556953
0.00577314
0.00597581
0.00617818
0.00637906
0.0065761
0.0067663
0.00694639
0.00711313
0.00726359
0.00739533
0.00750656
0.0075962
0.00766392
0.00771011
0.00773584
0.00774274
0.00773293
0.00770883
0.00767309
0.00762845
0.00757761
0.0075232
0.00746763
0.00741307
0.00736141
0.00731422
0.00727273
0.00723786
0.00721016
0.00718992
0.00717712
0.00717148
0.00717253
0.00717959
0.00719187
0.0072085
0.0072285
0.0072509
0.00727467
0.00729886
0.00732252
0.00734476
0.00736476
0.00738181
0.00739525
0.00740458
0.00740938
5.00899e-05
4.72035e-05
0.000307544
0.00107702
0.00219083
0.00316865
0.00387373
0.00436846
0.0047284
0.00500678
0.00523782
0.00544309
0.00563595
0.00582434
0.00601239
0.00620159
0.0063915
0.00658039
0.00676565
0.00694419
0.00711277
0.00726822
0.00740772
0.00752891
0.00763005
0.00771011
0.00776875
0.00780633
0.00782389
0.00782297
0.00780562
0.00777419
0.00773125
0.00767949
0.00762157
0.00756008
0.00749742
0.00743576
0.00737699
0.00732271
0.00727416
0.00723226
0.00719763
0.00717053
0.00715096
0.00713866
0.00713313
0.00713372
0.00713962
0.00714993
0.00716367
0.00717984
0.00719742
0.00721544
0.00723296
0.00724912
0.00726314
0.00727434
0.00728219
0.00728625
5.25982e-05
5.01605e-05
0.000327046
0.00113828
0.00229135
0.00328689
0.00399706
0.00449075
0.00484576
0.00511613
0.00533654
0.00552902
0.00570757
0.00588083
0.00605378
0.0062287
0.00640593
0.0065844
0.00676201
0.00693603
0.00710333
0.00726074
0.00740518
0.00753392
0.0076447
0.00773584
0.00780634
0.00785587
0.00788478
0.00789405
0.00788519
0.00786018
0.00782129
0.00777106
0.00771211
0.00764706
0.00757848
0.00750875
0.00744004
0.00737425
0.00731297
0.00725748
0.00720873
0.00716731
0.00713352
0.00710737
0.00708858
0.00707668
0.00707098
0.00707069
0.00707489
0.00708257
0.00709274
0.00710439
0.00711654
0.00712831
0.00713887
0.0071475
0.00715364
0.00715684
5.51303e-05
5.31987e-05
0.000347087
0.00120062
0.00239236
0.00340511
0.00412043
0.00461356
0.00496442
0.00522778
0.00543862
0.00561933
0.00578435
0.00594292
0.00610069
0.0062607
0.00642403
0.00659028
0.00675795
0.00692475
0.00708786
0.0072442
0.00739065
0.00752424
0.00764234
0.00774275
0.00782389
0.00788478
0.00792512
0.00794524
0.00794609
0.00792915
0.00789632
0.00784986
0.00779222
0.00772599
0.00765377
0.00757808
0.00750129
0.00742559
0.00735286
0.00728472
0.00722245
0.00716699
0.00711898
0.00707871
0.00704619
0.00702114
0.00700309
0.00699137
0.00698515
0.0069835
0.00698543
0.00698996
0.00699608
0.00700288
0.00700951
0.00701521
0.00701939
0.00702161
5.76844e-05
5.63145e-05
0.000367638
0.00126392
0.0024937
0.00352313
0.00424364
0.00473662
0.00508404
0.0053413
0.00554363
0.00571363
0.00586606
0.0060106
0.00615348
0.00629836
0.00644702
0.00659974
0.00675562
0.0069129
0.00706916
0.00722156
0.00736708
0.00750268
0.00762548
0.00773294
0.00782298
0.00789406
0.00794524
0.00797626
0.00798744
0.00797971
0.00795451
0.00791372
0.00785953
0.00779437
0.00772078
0.00764133
0.00755852
0.00747472
0.0073921
0.00731254
0.00723768
0.00716879
0.00710684
0.00705246
0.00700595
0.00696731
0.00693629
0.00691241
0.00689499
0.00688318
0.00687609
0.00687273
0.00687213
0.00687336
0.00687555
0.00687793
0.00687991
0.00688102
6.02582e-05
5.95035e-05
0.000388667
0.00132806
0.00259518
0.00364078
0.00436648
0.00485966
0.00520428
0.00545629
0.00565111
0.00581146
0.00595233
0.0060837
0.00621222
0.00634212
0.00647578
0.00661408
0.00675678
0.00690264
0.00704974
0.00719558
0.00733736
0.0074721
0.00759686
0.00770885
0.00780563
0.00788521
0.0079461
0.00798744
0.00800896
0.00801102
0.00799453
0.0079609
0.00791198
0.00784993
0.00777713
0.0076961
0.00760939
0.00751947
0.00742871
0.00733925
0.007253
0.00717159
0.0070963
0.00702809
0.00696761
0.00691516
0.00687075
0.00683413
0.00680482
0.00678211
0.00676522
0.00675324
0.00674523
0.00674027
0.00673751
0.00673618
0.00673567
0.00673553
6.28488e-05
6.27607e-05
0.000410135
0.00139292
0.00269662
0.00375786
0.00448872
0.00498242
0.0053248
0.00557233
0.00576057
0.00591233
0.00604268
0.00616184
0.00627676
0.00639212
0.00651078
0.00663422
0.00676277
0.00689576
0.00703178
0.00716876
0.00730421
0.00743535
0.00755927
0.00767311
0.0077742
0.00786019
0.00792916
0.00797972
0.00801103
0.00802287
0.00801561
0.00799015
0.00794791
0.00789069
0.00782064
0.00774011
0.00765158
0.00755759
0.00746059
0.00736294
0.00726678
0.00717401
0.00708626
0.00700482
0.00693066
0.00686442
0.00680642
0.00675667
0.00671491
0.00668068
0.0066533
0.00663199
0.00661589
0.00660415
0.00659592
0.00659047
0.00658719
0.00658565
6.54527e-05
6.60804e-05
0.000432001
0.00145833
0.00279783
0.00387418
0.00461014
0.00510461
0.00544524
0.00568898
0.00587152
0.00601568
0.00613658
0.00624454
0.00634676
0.00644822
0.00655221
0.00666071
0.00677455
0.00689365
0.00701708
0.00714327
0.0072701
0.00739509
0.00751549
0.00762847
0.00773127
0.00782131
0.00789634
0.00795453
0.00799454
0.00801561
0.00801756
0.00800077
0.00796615
0.00791511
0.00784944
0.00777127
0.00768292
0.00758686
0.0074856
0.00738159
0.00727716
0.00717447
0.00707541
0.0069816
0.00689433
0.0068146
0.00674303
0.00667996
0.00662541
0.00657914
0.00654068
0.00650942
0.00648462
0.00646551
0.00645131
0.00644132
0.00643499
0.00643191
6.80663e-05
6.94561e-05
0.000454221
0.00152417
0.00289861
0.00398953
0.00473053
0.005226
0.00556529
0.00580587
0.00598349
0.00612098
0.00623344
0.00633125
0.00642175
0.00651014
0.00660003
0.0066938
0.00679277
0.00689732
0.00700708
0.00712093
0.00723721
0.00735378
0.00746815
0.00757764
0.00767952
0.00777109
0.00784988
0.00791374
0.00796092
0.00799017
0.00800078
0.00799261
0.00796607
0.00792209
0.00786208
0.00778782
0.00770142
0.0076052
0.0075016
0.00739313
0.00728221
0.00717119
0.00706219
0.00695712
0.0068576
0.00676493
0.0066801
0.00660376
0.00653626
0.00647762
0.00642764
0.00638591
0.00635185
0.00632483
0.00630418
0.00628928
0.00627962
0.00627485
7.06853e-05
7.28809e-05
0.000476744
0.00159028
0.00299877
0.00410374
0.00484969
0.00534632
0.00568464
0.00592259
0.00609601
0.00622768
0.00633267
0.00642138
0.00650117
0.00657741
0.00665395
0.00673348
0.0068177
0.00690747
0.00700285
0.00710323
0.00720739
0.0073136
0.00741969
0.00752324
0.00762161
0.00771214
0.00779225
0.00785956
0.007912
0.00794793
0.00796617
0.00796608
0.00794756
0.00791106
0.00785754
0.0077884
0.00770544
0.00761075
0.00750664
0.00739555
0.00727997
0.00716232
0.00704493
0.00692994
0.00681924
0.00671446
0.00661692
0.00652762
0.00644722
0.00637609
0.00631431
0.00626171
0.00621795
0.00618256
0.00615503
0.00613485
0.00612161
0.00611501
7.33051e-05
7.63474e-05
0.00049952
0.00165651
0.00309811
0.0042166
0.00496739
0.00546532
0.005803
0.0060388
0.00620864
0.00633527
0.0064337
0.00651428
0.0065844
0.00664948
0.00671355
0.00677951
0.0068494
0.00692443
0.00700511
0.00709127
0.00718214
0.0072764
0.0073723
0.00746767
0.00756013
0.00764711
0.00772603
0.00779441
0.00784996
0.00789072
0.00791514
0.00792211
0.00791107
0.00788199
0.00783534
0.00777211
0.00769372
0.00760197
0.00749896
0.00738701
0.00726853
0.00714601
0.00702187
0.00689844
0.00677785
0.00666202
0.00655258
0.00645086
0.00635788
0.00627435
0.00620066
0.00613697
0.00608319
0.00603907
0.00600431
0.00597854
0.00596148
0.00595294
7.59205e-05
7.98468e-05
0.000522489
0.00172267
0.00319644
0.00432791
0.00508343
0.00558278
0.00592007
0.00615413
0.00632095
0.00644324
0.00653594
0.00660933
0.00667077
0.00672572
0.00677826
0.0068315
0.00688766
0.0069483
0.00701427
0.00708582
0.0071626
0.00724373
0.00732783
0.00741312
0.00749747
0.00757853
0.00765382
0.00772083
0.00777718
0.00782068
0.00784948
0.00786211
0.00785756
0.00783535
0.00779548
0.00773851
0.00766543
0.00757771
0.00747715
0.00736587
0.00724616
0.00712048
0.00699127
0.006861
0.00673196
0.00660632
0.00648599
0.00637264
0.00626763
0.00617202
0.00608655
0.00601172
0.00594774
0.00589466
0.0058524
0.0058208
0.00579973
0.00578915
7.85259e-05
8.33699e-05
0.000545587
0.00178861
0.00329354
0.00443746
0.00519759
0.00569843
0.00603557
0.00626824
0.00643252
0.0065511
0.00663883
0.0067059
0.00675963
0.00680544
0.00684746
0.00688888
0.00693211
0.00697891
0.00703045
0.00708733
0.00714959
0.00721675
0.00728785
0.00736147
0.00743582
0.00750881
0.00757814
0.00764139
0.00769616
0.00774016
0.00777132
0.00778786
0.00778844
0.00777213
0.00773852
0.0076877
0.00762026
0.00753726
0.00744017
0.00733084
0.00721139
0.00708412
0.0069515
0.00681598
0.00668003
0.00654597
0.00641597
0.00629199
0.00617572
0.00606857
0.00597166
0.00588584
0.00581168
0.00574954
0.00569962
0.00566202
0.00563682
0.00562412
8.11154e-05
8.69067e-05
0.000568749
0.00185414
0.00338919
0.00454505
0.00530964
0.00581203
0.0061492
0.00638079
0.00654298
0.00665839
0.00674182
0.00680338
0.00685029
0.00688794
0.00692044
0.00695102
0.00698219
0.0070159
0.00705353
0.00709596
0.0071436
0.00719632
0.00725356
0.00731429
0.00737707
0.00744011
0.00750137
0.00755859
0.00760946
0.00765165
0.00768298
0.00770148
0.00770549
0.00769376
0.00766546
0.00762028
0.00755836
0.00748037
0.00738741
0.00728101
0.00716302
0.0070356
0.00690107
0.0067619
0.00662058
0.00647958
0.00634125
0.00620781
0.00608125
0.00596333
0.00585554
0.00575908
0.00567493
0.00560379
0.0055462
0.00550254
0.00547312
0.00545826
8.36827e-05
9.0447e-05
0.000591905
0.00191907
0.0034832
0.00465047
0.00541939
0.00592336
0.00626071
0.00649149
0.00665193
0.00676467
0.00684441
0.00690117
0.00694211
0.00697251
0.00699647
0.00701721
0.00703729
0.00705875
0.00708315
0.00711162
0.00714482
0.00718297
0.00722585
0.00727282
0.00732279
0.00737433
0.00742568
0.00747481
0.00751956
0.00755767
0.00758694
0.00760527
0.00761082
0.00760203
0.00757776
0.00753729
0.00748039
0.0074073
0.00731874
0.00721588
0.00710029
0.00697386
0.00683879
0.00669742
0.00655225
0.0064058
0.00626058
0.00611898
0.00598327
0.00585553
0.0057376
0.00563108
0.00553732
0.00545741
0.00539226
0.00534257
0.00530896
0.00529192
8.62207e-05
9.39783e-05
0.000614973
0.00198321
0.00357532
0.00475349
0.00552657
0.00603214
0.00636981
0.00659999
0.00675902
0.00686951
0.00694609
0.00699872
0.00703443
0.00705846
0.00707481
0.00708669
0.00709666
0.00710681
0.00711883
0.00713398
0.00715317
0.0071769
0.00720527
0.00723795
0.00727425
0.00731307
0.00735296
0.0073922
0.00742881
0.00746069
0.0074857
0.0075017
0.00750673
0.00749905
0.00747723
0.00744023
0.00738745
0.00731876
0.00723448
0.00713542
0.00702281
0.00689827
0.00676377
0.0066215
0.00647388
0.00632345
0.00617276
0.00602438
0.00588079
0.00574434
0.00561721
0.00550137
0.00539855
0.00531028
0.00523783
0.00518228
0.00514455
0.00512536
8.87223e-05
9.74894e-05
0.00063788
0.00204637
0.00366536
0.0048539
0.00563099
0.00613817
0.00647625
0.00670601
0.00686391
0.00697251
0.00704641
0.00709547
0.00712665
0.00714509
0.00715473
0.00715869
0.00715954
0.00715936
0.0071599
0.00716255
0.00716837
0.00717808
0.00719205
0.00721028
0.00723238
0.0072576
0.00728484
0.00731266
0.00733937
0.00736306
0.00738171
0.00739324
0.00739566
0.00738711
0.00736596
0.00733093
0.00728108
0.00721593
0.00713545
0.00704007
0.00693068
0.00680859
0.0066755
0.0065334
0.00638459
0.00623151
0.00607677
0.005923
0.00577286
0.00562892
0.00549366
0.0053694
0.00525827
0.00516219
0.00508285
0.00502171
0.00498002
0.00495877
9.11799e-05
0.000100967
0.000660538
0.00210833
0.00375306
0.00495147
0.0057324
0.00624117
0.00657975
0.00680926
0.00696624
0.00707328
0.00714491
0.00719092
0.00721819
0.00723176
0.00723549
0.00723245
0.00722512
0.0072156
0.00720564
0.00719668
0.00718991
0.00718622
0.00718618
0.00719006
0.00719776
0.00720887
0.00722259
0.00723782
0.00725315
0.00726692
0.00727731
0.00728235
0.0072801
0.00726866
0.00724629
0.0072115
0.00716312
0.00710036
0.00702287
0.00693071
0.00682444
0.00670503
0.00657389
0.00643278
0.0062838
0.00612929
0.00597179
0.00581399
0.00565863
0.00550848
0.00536627
0.00523462
0.00511605
0.00501287
0.00492717
0.00486083
0.00481542
0.00479223
9.35852e-05
0.000104397
0.000682855
0.00216889
0.00383819
0.00504595
0.00583055
0.0063409
0.00668003
0.00690941
0.00706568
0.00717143
0.00724115
0.00728456
0.00730847
0.00731782
0.00731641
0.00730719
0.00729262
0.00727472
0.00725523
0.00723563
0.00721717
0.00720084
0.00718738
0.00717728
0.00717069
0.00716747
0.00716716
0.00716895
0.00717175
0.00717418
0.00717464
0.00717135
0.00716248
0.00714616
0.00712062
0.00708426
0.00703572
0.00697397
0.00689836
0.00680865
0.00670506
0.00658824
0.00645928
0.00631969
0.00617133
0.00601638
0.00585729
0.00569671
0.00553743
0.00538236
0.00523442
0.00509651