/*--------------------------------*- C++ -*----------------------------------*\
| =========                 |                                                 |
| \\      /  F ield         | OpenFOAM: The Open Source CFD Toolbox           |
|  \\    /   O peration     | Version:  2212                                  |
|   \\  /    A nd           | Website:  www.openfoam.com                      |
|    \\/     M anipulation  |                                                 |
\*---------------------------------------------------------------------------*/
FoamFile
{
    version     2.0;
    format      ascii;
    arch        "LSB;label=32;scalar=64";
    class       volScalarField;
    location    "1000";
    object      omega;
}
// * * * * * * * * * * * * * * * * * * * * * * * * * * * * * * * * * * * * * //

dimensions      [0 0 -1 0 0 0 0];

internalField   nonuniform List<scalar> 
3600
(
4000
4000
4000
4000
4000.01
4000.01
4000.01
4000.02
4000.02
4000.03
4000.03
4000.04
4000.04
4000.05
4000.05
4000.06
4000.07
4000.07
4000.08
4000.08
4000.09
4000.09
4000.1
4000.11
4000.11
4000.12
4000.12
4000.13
4000.14
4000.14
4000.15
4000.16
4000.16
4000.17
4000.18
4000.18
4000.19
4000.19
4000.2
4000.21
4000.21
4000.22
4000.23
4000.23
4000.24
4000.24
4000.25
4000.25
4000.26
4000.26
4000.27
4000.27
4000.28
4000.28
4000.28
4000.28
4000.29
4000.29
4000.29
4000.29
4000
942.329
699.865
677.392
675.057
674.885
675.043
675.292
675.585
675.906
676.245
676.595
676.95
677.306
677.663
678.018
678.371
678.723
679.074
679.425
679.776
680.127
680.479
680.832
681.186
681.542
681.899
682.258
682.617
682.978
683.338
683.699
684.06
684.42
684.778
685.135
685.489
685.84
686.187
686.529
686.866
687.196
687.519
687.833
688.138
688.433
688.717
688.988
689.246
689.488
689.715
689.924
690.115
690.286
690.436
690.563
690.668
690.747
690.801
690.829
4000
699.865
302.74
234.718
222.184
220.037
220.036
220.569
221.28
222.07
222.902
223.756
224.617
225.479
226.335
227.182
228.019
228.846
229.662
230.469
231.268
232.058
232.842
233.619
234.39
235.155
235.914
236.667
237.414
238.155
238.889
239.615
240.333
241.043
241.743
242.432
243.111
243.777
244.429
245.067
245.69
246.295
246.883
247.451
247.999
248.525
249.026
249.503
249.954
250.375
250.767
251.128
251.455
251.747
252.003
252.219
252.396
252.531
252.622
252.668
4000
677.392
234.718
135.863
110.503
104.235
103.212
103.684
104.61
105.692
106.835
108.004
109.18
110.35
111.505
112.64
113.749
114.831
115.885
116.911
117.91
118.882
119.829
120.751
121.651
122.527
123.383
124.218
125.032
125.827
126.603
127.359
128.097
128.815
129.515
130.195
130.856
131.498
132.119
132.721
133.301
133.861
134.399
134.914
135.407
135.876
136.321
136.741
137.134
137.501
137.84
138.15
138.43
138.679
138.896
139.08
139.229
139.342
139.419
139.458
4000.01
675.057
222.184
110.503
76.3998
65.8541
63.0529
62.775
63.3076
64.1144
65.0327
66.0085
67.017
68.041
69.0662
70.0812
71.077
72.0467
72.9866
73.8941
74.7682
75.6091
76.4174
77.1942
77.9411
78.6593
79.3505
80.016
80.6573
81.2756
81.872
82.4473
83.0026
83.5386
84.0557
84.5547
85.0358
85.4996
85.946
86.3753
86.7877
87.1831
87.5613
87.9225
88.2663
88.5924
88.9007
89.1906
89.4619
89.7142
89.9467
90.159
90.3506
90.5208
90.6688
90.794
90.8955
90.9728
91.0251
91.0516
4000.01
674.885
220.037
104.235
65.8541
52.1953
47.4038
45.8145
45.3977
45.4576
45.7568
46.2054
46.7585
47.3858
48.0629
48.7696
49.4893
50.2094
50.9201
51.6148
52.2889
52.9397
53.5659
54.1671
54.7435
55.2958
55.825
56.3322
56.8185
57.2851
57.733
58.1632
58.5766
58.9741
59.3562
59.7238
60.0771
60.4168
60.743
61.0561
61.3562
61.6435
61.9181
62.1799
62.4288
62.6649
62.8878
63.0973
63.2933
63.4754
63.6433
63.7965
63.9347
64.0575
64.1642
64.2545
64.3278
64.3835
64.4212
64.4403
4000.01
675.043
220.036
103.212
63.0529
47.4038
40.8329
37.8343
36.3496
35.5896
35.2349
35.1412
35.232
35.4586
35.7855
36.1846
36.6334
37.1141
37.6124
38.1173
38.6207
39.1167
39.6012
40.0715
40.526
40.9639
41.385
41.7894
42.1775
42.5499
42.9071
43.2498
43.5788
43.8945
44.1976
44.4886
44.7679
45.036
45.293
45.5394
45.7753
46.0008
46.216
46.4211
46.6159
46.8004
46.9746
47.1383
47.2913
47.4334
47.5643
47.6838
47.7915
47.8872
47.9703
48.0407
48.0977
48.1411
48.1705
48.1854
4000.02
675.292
220.569
103.684
62.775
45.8145
37.8343
33.6562
31.2772
29.8437
28.9611
28.4327
28.1508
28.0496
28.0848
28.2234
28.4399
28.7138
29.0285
29.3708
29.73
30.0977
30.4678
30.8355
31.1971
31.5505
31.8939
32.2264
32.5474
32.8567
33.1543
33.4402
33.715
33.9787
34.2319
34.4748
34.7077
34.931
35.1449
35.3496
35.5453
35.7323
35.9104
36.0799
36.2408
36.3931
36.5366
36.6714
36.7972
36.914
37.0216
37.1197
37.208
37.2865
37.3547
37.4123
37.4591
37.4946
37.5187
37.5309
4000.02
675.585
221.28
104.61
63.3076
45.3977
36.3496
31.2772
28.224
26.2857
25.0101
24.1582
23.5963
23.2446
23.0516
22.9812
23.0065
23.1064
23.2639
23.465
23.698
23.9534
24.2236
24.5025
24.785
25.0676
25.3473
25.6221
25.8904
26.1512
26.4039
26.6479
26.8832
27.1097
27.3274
27.5365
27.737
27.9292
28.1131
28.2891
28.4572
28.6175
28.7702
28.9152
29.0527
29.1827
29.3051
29.4198
29.5269
29.6262
29.7176
29.8008
29.8758
29.9422
30
30.0488
30.0883
30.1184
30.1388
30.1491
4000.03
675.906
222.07
105.692
64.1144
45.4576
35.5896
29.8437
26.2857
23.9714
22.4048
21.3145
20.5464
20.0083
19.6425
19.4101
19.2832
19.241
19.2668
19.3468
19.4694
19.6251
19.8058
20.0044
20.2155
20.4343
20.6571
20.8809
21.1034
21.3228
21.5377
21.7472
21.9505
22.1473
22.3371
22.52
22.6957
22.8643
23.0258
23.1802
23.3277
23.4683
23.6021
23.729
23.8493
23.9628
24.0696
24.1697
24.2629
24.3492
24.4287
24.501
24.5659
24.6236
24.6736
24.7159
24.7501
24.7762
24.7938
24.8026
4000.03
676.245
222.902
106.835
65.0327
45.7568
35.2349
28.9611
25.0101
22.4048
20.6156
19.346
18.4243
17.748
17.2531
16.8976
16.6529
16.4978
16.4162
16.3949
16.4231
16.4916
16.5923
16.7184
16.864
17.024
17.1941
17.3709
17.5512
17.7328
17.9137
18.0923
18.2677
18.4388
18.605
18.766
18.9212
19.0706
19.214
19.3513
19.4824
19.6076
19.7266
19.8395
19.9463
20.0472
20.1419
20.2306
20.3131
20.3895
20.4598
20.5236
20.5809
20.6317
20.6759
20.7131
20.7432
20.7661
20.7816
20.7894
4000.04
676.595
223.756
108.004
66.0085
46.2054
35.1411
28.4327
24.1581
21.3145
19.346
17.935
16.8954
16.1146
15.5229
15.0749
14.7402
14.4973
14.3302
14.2265
14.1759
14.1697
14.2006
14.262
14.3482
14.454
14.5752
14.7077
14.8484
14.9944
15.1434
15.2934
15.443
15.5907
15.7358
15.8772
16.0146
16.1475
16.2754
16.3983
16.516
16.6283
16.7352
16.8367
16.9328
17.0234
17.1085
17.1881
17.2621
17.3306
17.3935
17.4507
17.5019
17.5473
17.5867
17.6199
17.6468
17.6672
17.6811
17.688
4000.04
676.95
224.617
109.18
67.017
46.7585
35.232
28.1508
23.5963
20.5464
18.4243
16.8953
15.7603
14.8979
14.2321
13.7139
13.3109
13.0005
12.7667
12.5972
12.4822
12.4137
12.3849
12.3898
12.4231
12.4798
12.5558
12.6471
12.7504
12.8627
12.9813
13.1041
13.2291
13.3549
13.48
13.6035
13.7246
13.8425
13.9568
14.067
14.1729
14.2743
14.371
14.4629
14.5499
14.632
14.7092
14.7813
14.8484
14.9104
14.9673
15.019
15.0653
15.1064
15.142
15.1719
15.1961
15.2146
15.227
15.2333
4000.05
677.306
225.479
110.35
68.041
47.3858
35.4586
28.0496
23.2446
20.0083
17.748
16.1146
14.8979
13.9681
13.2434
12.6708
12.2155
11.8535
11.568
11.3467
11.1801
11.0607
10.982
10.9386
10.9256
10.9386
10.9736
11.027
11.0954
11.1758
11.2655
11.3621
11.4636
11.5682
11.6744
11.7808
11.8864
11.9904
12.092
12.1907
12.286
12.3776
12.4653
12.5488
12.6281
12.703
12.7734
12.8392
12.9005
12.9571
13.009
13.0562
13.0984
13.1358
13.1682
13.1955
13.2176
13.2343
13.2457
13.2514
4000.05
677.663
226.335
111.505
69.0662
48.0629
35.7855
28.0848
23.0516
19.6425
17.2531
15.5229
14.2321
13.2434
12.4693
11.853
11.3566
10.9547
10.6293
10.3677
10.1604
9.99986
9.8802
9.79632
9.74378
9.71862
9.71718
9.73611
9.7723
9.82288
9.88521
9.95688
10.0358
10.1199
10.2077
10.2976
10.3883
10.479
10.5685
10.6564
10.7418
10.8245
10.904
10.98
11.0524
11.1209
11.1854
11.2458
11.302
11.354
11.4017
11.445
11.4838
11.5182
11.5479
11.573
11.5932
11.6086
11.619
11.6242
4000.06
678.018
227.182
112.64
70.0812
48.7696
36.1846
28.2234
22.9812
19.4101
16.8976
15.0749
13.7139
12.6708
11.853
11.1995
10.6697
10.2362
9.8797
9.58674
9.34741
9.15427
9.00148
8.88424
8.79847
8.74058
8.70729
8.69557
8.7026
8.72574
8.76248
8.81052
8.86773
8.93217
9.00206
9.07585
9.15217
9.2298
9.30773
9.38509
9.46118
9.53537
9.6072
9.67628
9.74229
9.80502
9.86424
9.91982
9.97165
10.0196
10.0636
10.1036
10.1395
10.1712
10.1987
10.2218
10.2405
10.2547
10.2643
10.2691
4000.07
678.371
228.019
113.749
71.0769
49.4893
36.6334
28.4399
23.0065
19.2832
16.6529
14.7402
13.3109
12.2155
11.3566
10.6697
10.1114
9.65183
9.27051
8.95288
8.68848
8.46958
8.29031
8.14597
8.03273
7.94727
7.88662
7.84809
7.82915
7.8274
7.84057
7.86652
7.90321
7.94875
8.00139
8.05951
8.12167
8.18658
8.25311
8.32026
8.3872
8.45321
8.5177
8.58018
8.64025
8.69761
8.75198
8.80317
8.85101
8.89536
8.93613
8.9732
9.00646
9.0359
9.06139
9.08287
9.10024
9.11341
9.12233
9.12682
4000.07
678.723
228.846
114.831
72.0468
50.2094
37.1141
28.7137
23.1064
19.241
16.4978
14.4973
13.0005
11.8535
10.9547
10.2362
9.65183
9.16979
8.76787
8.43039
8.14614
7.90693
7.70663
7.54054
7.40489
7.29654
7.21279
7.15119
7.10948
7.08555
7.07735
7.08294
7.10045
7.12809
7.16417
7.20712
7.25548
7.3079
7.36319
7.42027
7.47821
7.53619
7.59352
7.6496
7.70397
7.75622
7.80603
7.85311
7.89728
7.93833
7.97615
8.01059
8.04154
8.06895
8.0927
8.11272
8.12892
8.14121
8.14953
8.15372
4000.08
679.074
229.662
115.885
72.9866
50.9201
37.6123
29.0285
23.2639
19.2668
16.4162
14.3302
12.7667
11.568
10.6293
9.87971
9.27051
8.76787
8.34797
7.99392
7.69359
7.43818
7.2212
7.03774
6.88401
6.75693
6.65394
6.5728
6.51147
6.46807
6.44079
6.42791
6.42773
6.43862
6.45901
6.48741
6.52238
6.56259
6.60682
6.65395
6.70297
6.75299
6.80323
6.85303
6.9018
6.94909
6.9945
7.03767
7.07837
7.11633
7.15142
7.18344
7.21228
7.23786
7.26004
7.27876
7.29392
7.30542
7.31321
7.31714
4000.08
679.425
230.469
116.911
73.894
51.6147
38.1173
29.3708
23.465
19.3467
16.3949
14.2265
12.5972
11.3467
10.3677
9.58674
8.95288
8.4304
7.99392
7.6253
7.31144
7.04283
6.81247
6.61517
6.44694
6.30468
6.18588
6.08842
6.01042
5.9502
5.90616
5.87676
5.86051
5.85595
5.86166
5.87624
5.89836
5.92672
5.96012
5.99743
6.03761
6.07971
6.12289
6.16642
6.20965
6.25204
6.29313
6.33249
6.36983
6.40484
6.43733
6.46709
6.49396
6.51784
6.53859
6.55613
6.57034
6.58114
6.58844
6.59213
4000.09
679.776
231.268
117.91
74.7682
52.2889
38.6207
29.7299
23.6979
19.4694
16.4231
14.1759
12.4822
11.1801
10.1604
9.34741
8.68848
8.14615
7.69359
7.31144
6.98562
6.70584
6.46452
6.25605
6.07619
5.92171
5.79006
5.67913
5.58718
5.51264
5.45408
5.41015
5.37952
5.36091
5.35306
5.3547
5.36461
5.38158
5.40445
5.43212
5.46355
5.49777
5.53391
5.57117
5.60884
5.64633
5.68312
5.7187
5.75274
5.78487
5.81484
5.84243
5.86743
5.88971
5.90911
5.92554
5.93887
5.94902
5.95588
5.95936
4000.09
680.127
232.058
118.882
75.6091
52.9397
39.1166
30.0977
23.9534
19.6251
16.4916
14.1697
12.4137
11.0607
9.99986
9.15427
8.46959
7.90693
7.43818
7.04283
6.70584
6.41612
6.16547
5.9478
5.75853
5.59421
5.45215
5.33024
5.22675
5.14018
5.06923
5.01268
4.96938
4.93818
4.91798
4.90767
4.90614
4.91228
4.92502
4.94331
4.96614
4.99255
5.02165
5.05262
5.08471
5.11727
5.14972
5.18152
5.21225
5.24152
5.26901
5.29446
5.31764
5.33837
5.35649
5.37186
5.38437
5.3939
5.40035
5.40362
4000.1
680.479
232.842
119.829
76.4173
53.5659
39.6011
30.4678
24.2236
19.8058
16.5923
14.2006
12.3849
10.982
9.8802
9.00148
8.29031
7.70663
7.2212
6.81248
6.46452
6.16547
5.90649
5.68095
5.48389
5.31156
5.16109
5.03027
4.91731
4.82076
4.73938
4.67205
4.61772
4.57541
4.54413
4.52292
4.5108
4.50678
4.50988
4.51913
4.53358
4.5523
4.57441
4.59909
4.62556
4.65314
4.6812
4.70917
4.73656
4.76294
4.78794
4.81126
4.83263
4.85184
4.86869
4.88304
4.89475
4.90369
4.90974
4.91282
4000.11
680.832
233.619
120.751
77.1942
54.1671
40.0715
30.8355
24.5025
20.0044
16.7184
14.262
12.3898
10.9386
9.79632
8.88424
8.14598
7.54054
7.03775
6.61517
6.25605
5.9478
5.68095
5.44834
5.24458
5.06559
4.90826
4.77019
4.64953
4.54479
4.45472
4.37829
4.31452
4.26252
4.22145
4.19044
4.16866
4.15523
4.14927
4.14992
4.15628
4.1675
4.18272
4.20113
4.22197
4.24451
4.26812
4.29218
4.31618
4.33962
4.36207
4.38324
4.40278
4.42047
4.43606
4.44939
4.46031
4.46867
4.47432
4.47721
4000.11
681.186
234.39
121.651
77.9411
54.7435
40.526
31.1972
24.785
20.2155
16.864
14.3482
12.4231
10.9256
9.74378
8.79847
8.03274
7.40489
6.88401
6.44694
6.0762
5.75854
5.48389
5.24458
5.03479
4.85005
4.68698
4.54298
4.41604
4.30459
4.20738
4.12335
4.05158
3.99127
3.94165
3.90197
3.87149
3.84946
3.83511
3.82766
3.82631
3.83028
3.83876
3.85099
3.8662
3.88367
3.90277
3.92286
3.94338
3.9638
3.98366
4.00262
4.0203
4.03643
4.05074
4.06304
4.07315
4.08093
4.0862
4.08889
4000.12
681.542
235.155
122.527
78.6593
55.2958
40.9639
31.5505
25.0676
20.4343
17.024
14.454
12.4798
10.9386
9.71862
8.74058
7.94727
7.29655
6.75694
6.30468
5.92172
5.59421
5.31156
5.06559
4.85005
4.66011
4.49207
4.34309
4.21099
4.09406
3.99098
3.90067
3.82222
3.75486
3.69787
3.65061
3.61242
3.58264
3.56061
3.54564
3.53704
3.53408
3.53604
3.54221
3.55185
3.56426
3.57882
3.59486
3.61183
3.62915
3.64634
3.66301
3.67877
3.69329
3.70628
3.71753
3.72681
3.73399
3.73886
3.74136
4000.12
681.899
235.914
123.383
79.3505
55.825
41.385
31.8939
25.3473
20.6571
17.1942
14.5752
12.5558
10.9737
9.71718
8.70729
7.88662
7.21279
6.65395
6.18589
5.79006
5.45216
5.16109
4.90826
4.68698
4.49207
4.31951
4.1662
4.02975
3.9083
3.80041
3.70494
3.62095
3.54767
3.48444
3.43064
3.38569
3.34902
3.32005
3.2982
3.28285
3.27337
3.2691
3.2694
3.27357
3.28097
3.29096
3.30292
3.31626
3.3304
3.34483
3.35914
3.3729
3.38574
3.39737
3.40751
3.41594
3.42249
3.42695
3.42924
4000.13
682.258
236.667
124.218
80.0161
56.3322
41.7894
32.2264
25.6221
20.8809
17.3709
14.7077
12.6471
11.027
9.73611
8.69557
7.8481
7.15119
6.5728
6.08842
5.67914
5.33025
5.03027
4.7702
4.54298
4.34309
4.1662
4.00895
3.8687
3.74343
3.63156
3.53184
3.44328
3.36509
3.2966
3.23723
3.18644
3.14373
3.10859
3.08051
3.05897
3.04342
3.03327
3.02794
3.02681
3.02928
3.03475
3.0426
3.05226
3.06314
3.07473
3.0866
3.09828
3.10937
3.11957
3.12854
3.13607
3.14196
3.146
3.14808
4000.14
682.617
237.414
125.032
80.6574
56.8185
42.1775
32.5474
25.8904
21.1034
17.5512
14.8484
12.7504
11.0954
9.7723
8.70261
7.82915
7.10949
6.51148
6.01043
5.58719
5.22675
4.91731
4.64954
4.41604
4.21099
4.02975
3.8687
3.72499
3.59637
3.48112
3.37786
3.28553
3.20328
3.13041
3.06635
3.01058
2.96264
2.92208
2.88845
2.86131
2.84017
2.82454
2.81389
2.80769
2.80537
2.80638
2.81014
2.81609
2.82366
2.83234
2.84168
2.85118
2.86045
2.86913
2.87689
2.88347
2.88866
2.89224
2.89409
4000.14
682.978
238.155
125.827
81.2756
57.2851
42.5499
32.8567
26.1512
21.3228
17.7328
14.9944
12.8627
11.1758
9.82289
8.72574
7.8274
7.08555
6.46807
5.95021
5.51264
5.14018
4.82076
4.54479
4.3046
4.09406
3.9083
3.74343
3.59637
3.46468
3.34646
3.2402
3.14472
3.0591
2.98261
2.91463
2.85465
2.80224
2.75698
2.71847
2.68632
2.66013
2.63945
2.62383
2.61281
2.6059
2.60257
2.6023
2.60455
2.60877
2.61449
2.62123
2.62847
2.63584
2.64293
2.64942
2.65498
2.65943
2.66251
2.66411
4000.15
683.338
238.889
126.603
81.8719
57.733
42.9071
33.1542
26.4038
21.5377
17.9137
15.1434
12.9813
11.2655
9.88522
8.76248
7.84058
7.07736
6.4408
5.90616
5.45408
5.06923
4.73938
4.45473
4.20738
3.99099
3.80042
3.63156
3.48112
3.34646
3.2255
3.11659
3.01843
2.93
2.85048
2.77925
2.71575
2.65956
2.61027
2.56752
2.53096
2.50024
2.47498
2.4548
2.43927
2.428
2.4205
2.4163
2.4149
2.41579
2.41851
2.42258
2.4275
2.43289
2.43832
2.44345
2.44796
2.45161
2.45417
2.45551
4000.16
683.699
239.615
127.359
82.4473
58.1632
43.2498
33.4402
26.6479
21.7471
18.0923
15.2934
13.1041
11.3621
9.95689
8.81052
7.86652
7.08294
6.42791
5.87676
5.41015
5.01269
4.67205
4.37829
4.12335
3.90067
3.70494
3.53184
3.37786
3.2402
3.11659
3.00523
2.9047
2.81386
2.73181
2.65786
2.59144
2.53207
2.47936
2.43297
2.39258
2.35786
2.3285
2.30416
2.28449
2.26913
2.25768
2.24969
2.24472
2.24233
2.24204
2.2434
2.24596
2.24929
2.253
2.25672
2.2601
2.26293
2.26492
2.26598
4000.16
684.06
240.333
128.097
83.0026
58.5766
43.5788
33.715
26.8832
21.9505
18.2677
15.443
13.2291
11.4636
10.0358
8.86774
7.90322
7.10045
6.42773
5.86052
5.37952
4.96938
4.61773
4.31452
4.05158
3.82222
3.62095
3.44328
3.28553
3.14472
3.01843
2.9047
2.80197
2.70899
2.62477
2.54853
2.47965
2.41763
2.36205
2.31257
2.26887
2.23067
2.19768
2.16961
2.14617
2.12703
2.11186
2.10027
2.09188
2.08626
2.08299
2.08163
2.08178
2.08301
2.08494
2.08718
2.08939
2.09133
2.09273
2.09351
4000.17
684.42
241.043
128.815
83.5386
58.9741
43.8946
33.9788
27.1097
22.1473
18.4388
15.5908
13.3549
11.5682
10.1199
8.93217
7.94876
7.12809
6.43862
5.85596
5.36092
4.93819
4.57541
4.26253
3.99128
3.75486
3.54768
3.36509
3.20328
3.05911
2.93
2.81386
2.70899
2.61402
2.52787
2.44966
2.37871
2.31446
2.25647
2.20438
2.15787
2.11666
2.0805
2.04913
2.02229
1.99971
1.9811
1.96612
1.95445
1.94572
1.93953
1.9355
1.93322
1.93233
1.93241
1.93311
1.93411
1.93512
1.93591
1.93637
4000.18
684.778
241.743
129.515
84.0558
59.3563
44.1977
34.232
27.3274
22.3372
18.6051
15.7358
13.4801
11.6744
10.2077
9.00207
8.00139
7.16417
6.45901
5.86166
5.35306
4.91799
4.54414
4.22145
3.94165
3.69788
3.48444
3.2966
3.13041
2.98261
2.85049
2.73182
2.62477
2.52787
2.43992
2.35995
2.2872
2.22107
2.16105
2.10676
2.05787
2.0141
1.9752
1.94094
1.91109
1.8854
1.86364
1.84553
1.83078
1.81907
1.81006
1.8034
1.79872
1.79569
1.79389
1.79304
1.79276
1.79281
1.79297
1.7931
4000.18
685.135
242.432
130.195
84.5548
59.7239
44.4887
34.4749
27.5365
22.52
18.766
15.8773
13.6036
11.7808
10.2976
9.07586
8.05951
7.20713
6.48741
5.87624
5.3547
4.90767
4.52292
4.19045
3.90197
3.65061
3.43064
3.23723
3.06635
2.91463
2.77925
2.65786
2.54853
2.44966
2.35995
2.27834
2.20399
2.13622
2.07447
2.01833
1.96743
1.92149
1.88024
1.84348
1.81098
1.78253
1.75794
1.73695
1.71934
1.70483
1.69312
1.68391
1.67689
1.67172
1.66805
1.6656
1.66404
1.6631
1.6626
1.66239
4000.19
685.489
243.111
130.856
85.036
60.0772
44.768
34.7078
27.737
22.6957
18.9212
16.0146
13.7246
11.8864
10.3884
9.15217
8.12168
7.25548
6.52238
5.89836
5.36461
4.90613
4.5108
4.16866
3.87148
3.61241
3.38568
3.18644
3.01058
2.85465
2.71575
2.59144
2.47965
2.37871
2.2872
2.20399
2.12814
2.05889
1.99565
1.93792
1.88532
1.83754
1.7943
1.75538
1.72058
1.68972
1.66259
1.63902
1.61878
1.60166
1.58742
1.57578
1.56647
1.55922
1.55369
1.54964
1.54676
1.54485
1.54366
1.5431
4000.19
685.84
243.777
131.498
85.4997
60.4168
45.036
34.9311
27.9292
22.8643
19.0706
16.1475
13.8425
11.9904
10.479
9.22981
8.18659
7.30791
6.56259
5.92672
5.38158
4.91228
4.50678
4.15522
3.84945
3.58263
3.34901
3.14373
2.96264
2.80224
2.65956
2.53206
2.41763
2.31446
2.22107
2.13621
2.05889
1.98826
1.92367
1.86456
1.8105
1.76115
1.71622
1.67547
1.6387
1.60572
1.57637
1.55048
1.52787
1.50837
1.49176
1.47783
1.46635
1.45708
1.44974
1.4441
1.43992
1.437
1.43513
1.43421
4000.2
686.187
244.429
132.12
85.9462
60.7431
45.2931
35.1449
28.1132
23.0258
19.214
16.2754
13.9568
12.092
10.5685
9.30774
8.25311
7.3632
6.60683
5.96012
5.40445
4.92502
4.50988
4.14927
3.8351
3.5606
3.32005
3.10859
2.92208
2.75698
2.61026
2.47936
2.36205
2.25647
2.16105
2.07447
1.99564
1.92366
1.85779
1.79743
1.7421
1.69141
1.64503
1.60272
1.56426
1.52947
1.49818
1.47025
1.44552
1.42386
1.40509
1.38903
1.3755
1.36431
1.35521
1.34803
1.34256
1.33864
1.33609
1.33483
4000.21
686.529
245.067
132.721
86.3755
61.0562
45.5395
35.3497
28.2891
23.1802
19.3513
16.3983
14.067
12.1907
10.6564
9.3851
8.32026
7.42027
6.65395
5.99742
5.43212
4.9433
4.51912
4.14991
3.82765
3.54563
3.29819
3.08051
2.88845
2.71847
2.56751
2.43297
2.31256
2.20437
2.10675
2.01832
1.93791
1.86455
1.79743
1.73589
1.6794
1.62752
1.5799
1.53626
1.49637
1.46002
1.42705
1.39734
1.37075
1.34716
1.32643
1.30842
1.29299
1.27998
1.26922
1.26056
1.25384
1.24894
1.24572
1.24412
4000.21
686.866
245.69
133.302
86.788
61.3564
45.7754
35.5454
28.4573
23.3278
19.4825
16.516
14.1729
12.286
10.7418
9.46118
8.3872
7.47821
6.70296
6.03759
5.46354
4.96612
4.53356
4.15626
3.82629
3.53702
3.28283
3.05896
2.8613
2.68632
2.53095
2.39257
2.26886
2.15786
2.05786
1.96742
1.88531
1.81049
1.74209
1.6794
1.62181
1.56886
1.52014
1.47535
1.43422
1.39654
1.36214
1.33089
1.30266
1.27737
1.2549
1.23512
1.21795
1.20327
1.19095
1.18089
1.17299
1.16713
1.16325
1.16132
4000.22
687.196
246.296
133.861
87.1834
61.6438
46.0009
35.7324
28.6176
23.4684
19.6076
16.6283
14.2743
12.3776
10.8245
9.53538
8.4532
7.53618
6.75298
6.07969
5.49775
4.99252
4.55228
4.16747
3.83025
3.53406
3.27335
3.0434
2.84016
2.66011
2.50023
2.35785
2.23065
2.11665
2.01408
1.92147
1.83752
1.76113
1.69139
1.62751
1.56885
1.51489
1.46517
1.41935
1.37715
1.33834
1.3027
1.27013
1.2405
1.21372
1.18971
1.16836
1.14962
1.13341
1.11966
1.1083
1.09927
1.09252
1.08802
1.08576
4000.23
687.519
246.884
134.399
87.5616
61.9183
46.2162
35.9106
28.7703
23.6021
19.7266
16.7353
14.371
12.4653
10.904
9.60721
8.51769
7.5935
6.80321
6.12286
5.53388
5.02161
4.57438
4.18268
3.83872
3.53602
3.26907
3.03325
2.82452
2.63943
2.47496
2.32848
2.19766
2.08048
1.97518
1.88022
1.79427
1.7162
1.64501
1.57989
1.52013
1.46517
1.41451
1.36776
1.32461
1.2848
1.24811
1.21441
1.18357
1.15551
1.13015
1.10743
1.08729
1.06971
1.05465
1.0421
1.03204
1.02446
1.01937
1.0168
4000.23
687.833
247.452
134.915
87.9229
62.1801
46.4213
36.0801
28.9154
23.7292
19.8396
16.8368
14.4629
12.5489
10.98
9.67628
8.58016
7.64958
6.85299
6.16637
5.57111
5.05256
4.59903
4.20107
3.85093
3.54216
3.26935
3.02791
2.81386
2.62381
2.45477
2.30414
2.16959
2.04911
1.94091
1.84345
1.75535
1.67544
1.6027
1.53624
1.47533
1.41934
1.36775
1.32012
1.27612
1.23543
1.19782
1.16314
1.13126
1.10211
1.07559
1.05168
1.03033
1.01153
0.995303
0.981676
0.970679
0.962337
0.956714
0.953863
4000.24
688.139
248
135.408
88.2667
62.4291
46.6161
36.241
29.0529
23.8494
19.9464
16.9329
14.55
12.6281
11.0524
9.74229
8.64023
7.70392
6.90174
6.20957
5.60874
5.08458
4.62544
4.22186
3.86611
3.55178
3.27351
3.02677
2.80764
2.61278
2.43924
2.28446
2.14614
2.02227
1.91105
1.81094
1.72055
1.63866
1.56423
1.49633
1.43419
1.37713
1.3246
1.27611
1.23129
1.18979
1.15137
1.11586
1.08309
1.053
1.02549
1.00055
0.978143
0.958294
0.941046
0.926469
0.914633
0.9056
0.899497
0.896391
4000.24
688.434
248.525
135.877
88.5929
62.6652
46.8007
36.3933
29.1829
23.963
20.0473
17.0235
14.6321
12.703
11.1209
9.80502
8.69759
7.75618
6.94903
6.25196
5.64623
5.11715
4.653
4.24437
3.88357
3.56418
3.28089
3.02922
2.80531
2.60585
2.42796
2.2691
2.127
1.99968
1.88537
1.7825
1.68968
1.60568
1.52943
1.45998
1.3965
1.3383
1.28477
1.23541
1.18978
1.14752
1.10837
1.07211
1.03858
1.00769
0.979336
0.95352
0.930204
0.909452
0.891343
0.875941
0.863363
0.853724
0.847191
0.843851
4000.25
688.717
249.027
136.322
88.9011
62.8881
46.9749
36.5368
29.3052
24.0698
20.142
17.1086
14.7092
12.7734
11.1854
9.86426
8.75198
7.80601
6.99446
6.29307
5.68305
5.14964
4.68111
4.26802
3.90268
3.57873
3.29088
3.03468
2.80631
2.60251
2.42045
2.25763
2.11182
1.98106
1.8636
1.75789
1.66255
1.57633
1.49813
1.427
1.36209
1.30265
1.24806
1.19779
1.15135
1.10836
1.0685
1.03157
0.997368
0.965785
0.936726
0.910161
0.886098
0.864575
0.845721
0.829616
0.816407
0.806251
0.799341
0.795803
4000.25
688.989
249.504
136.741
89.1911
63.0977
47.1386
36.6716
29.42
24.1698
20.2307
17.1882
14.7814
12.8393
11.2458
9.91987
8.80319
7.85312
7.03766
6.33247
5.71867
5.18147
4.70911
4.29211
3.92279
3.59479
3.30285
3.04254
2.81008
2.60224
2.41624
2.24964
2.10022
1.96608
1.84549
1.73691
1.63896
1.55043
1.47019
1.39728
1.33083
1.27007
1.21435
1.1631
1.11583
1.07209
1.03154
0.99398
0.959165
0.92699
0.897322
0.870126
0.845447
0.823294
0.803802
0.787104
0.773364
0.762755
0.755538
0.75185
4000.26
689.246
249.954
137.135
89.4625
63.2937
47.2916
36.7974
29.5271
24.263
20.3133
17.2623
14.8485
12.9005
11.3021
9.97169
8.85103
7.89728
7.07836
6.3698
5.7527
5.2122
4.7365
4.31611
3.9433
3.61175
3.31618
3.05219
2.81603
2.60449
2.41484
2.24468
2.09183
1.9544
1.83073
1.71929
1.61873
1.52782
1.44547
1.37069
1.30261
1.24044
1.18351
1.13122
1.08305
1.03854
0.997337
0.959145
0.923772
0.891059
0.860859
0.833148
0.807943
0.785248
0.765233
0.74805
0.733882
0.722903
0.71541
0.711593
4000.26
689.489
250.376
137.502
89.7147
63.4758
47.4337
36.9143
29.6264
24.3494
20.3897
17.3308
14.9105
12.9572
11.3541
10.0196
8.89538
7.93834
7.11633
6.40482
5.78484
5.24147
4.76288
4.33954
3.96372
3.62907
3.33032
3.06307
2.82359
2.60872
2.41574
2.24228
2.0862
1.94567
1.81901
1.70477
1.6016
1.50831
1.4238
1.34709
1.2773
1.21366
1.15545
1.10206
1.05296
1.00765
0.965741
0.926943
0.891027
0.857808
0.827167
0.79901
0.773351
0.75022
0.729783
0.712213
0.69767
0.686397
0.678685
0.67472
4000.27
689.715
250.768
137.841
89.9473
63.6437
47.5646
37.0218
29.7178
24.4288
20.4599
17.3936
14.9674
13.0091
11.4018
10.0637
8.93617
7.97617
7.15141
6.43731
5.81481
5.26896
4.78788
4.36201
3.9836
3.64627
3.34476
3.07467
2.83228
2.61443
2.41845
2.24197
2.08291
1.93946
1.80999
1.69305
1.58735
1.49169
1.40502
1.32636
1.25483
1.18964
1.13009
1.07554
1.02545
0.979293
0.936681
0.897284
0.860836
0.827134
0.796065
0.767501
0.741481
0.718018
0.697235
0.679323
0.664474
0.652933
0.645067
0.641023
4000.27
689.925
251.129
138.151
90.1596
63.797
47.6841
37.1199
29.801
24.5011
20.5237
17.4508
15.0191
13.0562
11.4451
10.1037
8.97323
8.01061
7.18345
6.46709
5.84241
5.29443
4.81122
4.3832
4.00257
3.66295
3.35907
3.08652
2.84158
2.62112
2.42247
2.24331
2.08155
1.93542
1.80332
1.68385
1.57571
1.47777
1.38896
1.30834
1.23505
1.16829
1.10736
1.05161
1.00048
0.953447
0.910102
0.870084
0.8331
0.798964
0.76748
0.738576
0.712207
0.688462
0.667382
0.649218
0.634128
0.62238
0.614374
0.610247
4000.28
690.115
251.456
138.431
90.3513
63.9352
47.7919
37.2083
29.876
24.5662
20.5811
17.5021
15.0655
13.0985
11.4839
10.1396
9.00652
8.04158
7.21231
6.49397
5.86743
5.31762
4.8326
4.40275
4.02025
3.67871
3.37283
3.09819
2.85108
2.62838
2.4274
2.24586
2.08169
1.93315
1.79864
1.67681
1.5664
1.46627
1.37542
1.2929
1.21787
1.14954
1.0872
1.03024
0.978049
0.930125
0.886016
0.845367
0.807861
0.773267
0.741411
0.712178
0.685532
0.661526
0.640225
0.621824
0.606542
0.594629
0.5865
0.582268
4000.28
690.286
251.748
138.68
90.5214
64.0579
47.8875
37.2868
29.9425
24.6238
20.6319
17.5475
15.1065
13.1359
11.5183
10.1713
9.03597
8.069
7.23789
6.51786
5.88971
5.33836
4.85181
4.42043
4.03637
3.69322
3.38566
3.10928
2.86035
2.63573
2.43279
2.24919
2.08292
1.93223
1.79559
1.67163
1.55913
1.45699
1.36421
1.27988
1.20317
1.13331
1.06961
1.01143
0.958186
0.909339
0.86446
0.823186
0.78516
0.75016
0.717951
0.688413
0.661502
0.637214
0.615707
0.597124
0.581704
0.569668
0.56144
0.557137
4000.28
690.436
252.004
138.897
90.6695
64.1647
47.9707
37.355
30.0003
24.6739
20.6761
17.5869
15.1421
13.1683
11.548
10.1987
9.06145
8.09274
7.26007
6.53861
5.90912
5.35647
4.86867
4.43602
4.05069
3.70622
3.39729
3.11947
2.86904
2.64283
2.43822
2.2529
2.08484
1.93232
1.7938
1.66796
1.5536
1.44964
1.35511
1.26911
1.19084
1.11954
1.05454
0.995186
0.940921
0.891196
0.845555
0.803648
0.76513
0.729703
0.697144
0.667308
0.640174
0.615683
0.594032
0.575296
0.559696
0.547578
0.539264
0.534902
4000.28
690.564
252.22
139.08
90.7946
64.255
48.041
37.4126
30.049
24.7161
20.7132
17.6201
15.172
13.1956
11.573
10.2219
9.08293
8.11278
7.27881
6.55616
5.92556
5.37187
4.88304
4.44938
4.06302
3.71749
3.40747
3.1285
2.87685
2.64937
2.4434
2.25665
2.0871
1.93303
1.79294
1.66549
1.54952
1.44398
1.34791
1.26044
1.18077
1.10816
1.04196
0.981529
0.926311
0.87576
0.829416
0.786918
0.747887
0.712069
0.679176
0.64911
0.621746
0.597079
0.575274
0.556417
0.540746
0.528545
0.520117
0.5157
4000.29
690.668
252.397
139.23
90.8962
64.3283
48.0981
37.4593
30.0886
24.7503
20.7433
17.6469
15.1962
13.2177
11.5933
10.2406
9.1003
8.12897
7.29396
6.57037
5.9389
5.38438
4.89475
4.46029
4.07313
3.72678
3.4159
3.13604
2.88344
2.65494
2.4479
2.26002
2.0893
1.934
1.79266
1.66392
1.54665
1.4398
1.34244
1.25371
1.17285
1.09912
1.03187
0.970501
0.914435
0.863148
0.816188
0.773137
0.733669
0.697495
0.664324
0.634001
0.60643
0.581649
0.559654
0.540686
0.524957
0.512681
0.504185
0.499744
4000.29
690.748
252.532
139.343
90.9735
64.384
48.1415
37.4949
30.1187
24.7763
20.7663
17.6674
15.2147
13.2344
11.6087
10.2548
9.11348
8.14126
7.30547
6.58116
5.94904
5.39391
4.90368
4.46865
4.08089
3.73394
3.42243
3.1419
2.8886
2.65936
2.45156
2.26285
2.09124
1.93503
1.79272
1.663
1.54474
1.43688
1.33851
1.2488
1.16699
1.09236
1.02428
0.962149
0.905402
0.85351
0.80603
0.762535
0.722695
0.686211
0.652784
0.622246
0.594566
0.569648
0.54755
0.528515
0.512636
0.500274
0.491729
0.487324
4000.29
690.802
252.623
139.42
91.0257
64.4217
48.1709
37.519
30.139
24.794
20.7818
17.6812
15.2271
13.2458
11.6191
10.2644
9.12238
8.14958
7.31325
6.58847
5.95591
5.40036
4.90974
4.47431
4.08617
3.73883
3.42691
3.14594
2.89217
2.66245
2.45411
2.26487
2.09269
1.93585
1.79291
1.66252
1.54356
1.435
1.33595
1.24557
1.16309
1.08784
1.01919
0.956516
0.899291
0.846975
0.79911
0.755311
0.71519
0.678468
0.644831
0.614163
0.586376
0.561356
0.539242
0.520132
0.504237
0.491821
0.483205
0.478811
4000.29
690.83
252.669
139.459
91.0523
64.4409
48.1858
37.5312
30.1493
24.8029
20.7896
17.6882
15.2334
13.2515
11.6243
10.2692
9.12687
8.15377
7.31718
6.59216
5.95938
5.40363
4.91282
4.4772
4.08887
3.74132
3.4292
3.14802
2.89404
2.66407
2.45547
2.26594
2.09346
1.93631
1.79302
1.6623
1.54299
1.43408
1.33468
1.24395
1.16114
1.08558
1.01662
0.953667
0.896185
0.843652
0.795597
0.751615
0.71137
0.67451
0.640764
0.610012
0.582145
0.557123
0.534913
0.515759
0.499883
0.487412
0.478841
0.474527
)
;

boundaryField
{
    symmetry1
    {
        type            symmetryPlane;
    }
    symmetry2
    {
        type            symmetryPlane;
    }
    wall
    {
        type            omegaWallFunction;
        blending        binomial;
        n               2;
        value           nonuniform List<scalar> 
120
(
4000.29
4000.29
4000.29
4000.29
4000.28
4000.28
4000.28
4000.28
4000.27
4000.27
4000.26
4000.26
4000.25
4000.25
4000.24
4000.24
4000.23
4000.23
4000.22
4000.21
4000.21