/*--------------------------------*- C++ -*----------------------------------*\
| =========                 |                                                 |
| \\      /  F ield         | OpenFOAM: The Open Source CFD Toolbox           |
|  \\    /   O peration     | Version:  2212                                  |
|   \\  /    A nd           | Website:  www.openfoam.com                      |
|    \\/     M anipulation  |                                                 |
\*---------------------------------------------------------------------------*/
FoamFile
{
    version     2.0;
    format      ascii;
    arch        "LSB;label=32;scalar=64";
    class       volVectorField;
    location    "0";
    object      C;
}
// * * * * * * * * * * * * * * * * * * * * * * * * * * * * * * * * * * * * * //

dimensions      [0 1 0 0 0 0 0];

internalField   nonuniform List<vector> 
120
(
(0.2 1.03 1.5)
(0.2 1.0902 1.5)
(0.2 1.15053 1.5)
(0.2 1.21044 1.5)
(0.2 1.26941 1.5)
(0.2 1.32694 1.5)
(0.2 1.38258 1.5)
(0.2 1.43594 1.5)
(0.2 1.48672 1.5)
(0.2 1.53467 1.5)
(0.2 1.57962 1.5)
(0.2 1.62147 1.5)
(0.2 1.66021 1.5)
(0.2 1.69584 1.5)
(0.2 1.72844 1.5)
(0.2 1.75812 1.5)
(0.2 1.78503 1.5)
(0.2 1.80933 1.5)
(0.2 1.83118 1.5)
(0.2 1.85077 1.5)
(0.2 1.86828 1.5)
(0.2 1.8839 1.5)
(0.2 1.89778 1.5)
(0.2 1.91011 1.5)
(0.2 1.92103 1.5)
(0.2 1.93068 1.5)
(0.2 1.93921 1.5)
(0.2 1.94673 1.5)
(0.2 1.95336 1.5)
(0.2 1.95919 1.5)
(0.2 1.96432 1.5)
(0.2 1.96883 1.5)
(0.2 1.97279 1.5)
(0.2 1.97626 1.5)
(0.2 1.97931 1.5)
(0.2 1.98198 1.5)
(0.2 1.98432 1.5)
(0.2 1.98637 1.5)
(0.2 1.98816 1.5)
(0.2 1.98973 1.5)
(0.2 1.99111 1.5)
(0.2 1.99231 1.5)
(0.2 1.99336 1.5)
(0.2 1.99429 1.5)
(0.2 1.99509 1.5)
(0.2 1.9958 1.5)
(0.2 1.99641 1.5)
(0.2 1.99695 1.5)
(0.2 1.99742 1.5)
(0.2 1.99783 1.5)
(0.2 1.99819 1.5)
(0.2 1.99851 1.5)
(0.2 1.99878 1.5)
(0.2 1.99903 1.5)
(0.2 1.99924 1.5)
(0.2 1.99942 1.5)
(0.2 1.99958 1.5)
(0.2 1.99972 1.5)
(0.2 1.99984 1.5)
(0.2 1.99995 1.5)
(0.2 5e-05 1.5)
(0.2 0.000157212 1.5)
(0.2 0.000279888 1.5)
(0.2 0.000420256 1.5)
(0.2 0.000580863 1.5)
(0.2 0.000764623 1.5)
(0.2 0.000974868 1.5)
(0.2 0.00121541 1.5)
(0.2 0.0014906 1.5)
(0.2 0.00180542 1.5)
(0.2 0.00216555 1.5)
(0.2 0.00257751 1.5)
(0.2 0.00304871 1.5)
(0.2 0.00358764 1.5)
(0.2 0.00420398 1.5)
(0.2 0.00490878 1.5)
(0.2 0.00571466 1.5)
(0.2 0.006636 1.5)
(0.2 0.0076892 1.5)
(0.2 0.00889292 1.5)
(0.2 0.0102684 1.5)
(0.2 0.01184 1.5)
(0.2 0.013635 1.5)
(0.2 0.0156847 1.5)
(0.2 0.0180245 1.5)
(0.2 0.0206946 1.5)
(0.2 0.0237402 1.5)
(0.2 0.0272128 1.5)
(0.2 0.03117 1.5)
(0.2 0.0356766 1.5)
(0.2 0.0408057 1.5)
(0.2 0.0466384 1.5)
(0.2 0.0532657 1.5)
(0.2 0.060788 1.5)
(0.2 0.0693166 1.5)
(0.2 0.0789736 1.5)
(0.2 0.0898924 1.5)
(0.2 0.102217 1.5)
(0.2 0.116104 1.5)
(0.2 0.131717 1.5)
(0.2 0.149229 1.5)
(0.2 0.168821 1.5)
(0.2 0.190673 1.5)
(0.2 0.214967 1.5)
(0.2 0.241877 1.5)
(0.2 0.271562 1.5)
(0.2 0.304165 1.5)
(0.2 0.339795 1.5)
(0.2 0.378525 1.5)
(0.2 0.420381 1.5)
(0.2 0.465331 1.5)
(0.2 0.513278 1.5)
(0.2 0.564056 1.5)
(0.2 0.617422 1.5)
(0.2 0.673061 1.5)
(0.2 0.730589 1.5)
(0.2 0.789557 1.5)
(0.2 0.84947 1.5)
(0.2 0.909799 1.5)
(0.2 0.97 1.5)
)
;

boundaryField
{
    bottomWall
    {
        type            calculated;
        value           uniform (0.2 0 1.5);
    }
    sides1_half01
    {
        type            empty;
    }
    sides1_half11
    {
        type            empty;
    }
    sides2_half01
    {
        type            empty;
    }
    sides2_half11
    {
        type            empty;
    }
    topWall
    {
        type            calculated;
        value           uniform (0.2 2 1.5);
    }
    inout1_half0
    {
        type            cyclic;
    }
    inout1_half1
    {
        type            cyclic;
    }
    inout2_half0
    {
        type            cyclic;
    }
    inout2_half1
    {
        type            cyclic;
    }
}


// ************************************************************************* //
