/*--------------------------------*- C++ -*----------------------------------*\
| =========                 |                                                 |
| \\      /  F ield         | OpenFOAM: The Open Source CFD Toolbox           |
|  \\    /   O peration     | Version:  2212                                  |
|   \\  /    A nd           | Website:  www.openfoam.com                      |
|    \\/     M anipulation  |                                                 |
\*---------------------------------------------------------------------------*/
FoamFile
{
    version     2.0;
    format      ascii;
    arch        "LSB;label=32;scalar=64";
    class       volScalarField;
    location    "0";
    object      Cy;
}
// * * * * * * * * * * * * * * * * * * * * * * * * * * * * * * * * * * * * * //

dimensions      [0 1 0 0 0 0 0];

internalField   nonuniform List<scalar> 
120
(
1.03
1.0902
1.15053
1.21044
1.26941
1.32694
1.38258
1.43594
1.48672
1.53467
1.57962
1.62147
1.66021
1.69584
1.72844
1.75812
1.78503
1.80933
1.83118
1.85077
1.86828
1.8839
1.89778
1.91011
1.92103
1.93068
1.93921
1.94673
1.95336
1.95919
1.96432
1.96883
1.97279
1.97626
1.97931
1.98198
1.98432
1.98637
1.98816
1.98973
1.99111
1.99231
1.99336
1.99429
1.99509
1.9958
1.99641
1.99695
1.99742
1.99783
1.99819
1.99851
1.99878
1.99903
1.99924
1.99942
1.99958
1.99972
1.99984
1.99995
5e-05
0.000157212
0.000279888
0.000420256
0.000580863
0.000764623
0.000974868
0.00121541
0.0014906
0.00180542
0.00216555
0.00257751
0.00304871
0.00358764
0.00420398
0.00490878
0.00571466
0.006636
0.0076892
0.00889292
0.0102684
0.01184
0.013635
0.0156847
0.0180245
0.0206946
0.0237402
0.0272128
0.03117
0.0356766
0.0408057
0.0466384
0.0532657
0.060788
0.0693166
0.0789736
0.0898924
0.102217
0.116104
0.131717
0.149229
0.168821
0.190673
0.214967
0.241877
0.271562
0.304165
0.339795
0.378525
0.420381
0.465331
0.513278
0.564056
0.617422
0.673061
0.730589
0.789557
0.84947
0.909799
0.97
)
;

boundaryField
{
    bottomWall
    {
        type            calculated;
        value           uniform 0;
    }
    sides1_half01
    {
        type            empty;
    }
    sides1_half11
    {
        type            empty;
    }
    sides2_half01
    {
        type            empty;
    }
    sides2_half11
    {
        type            empty;
    }
    topWall
    {
        type            calculated;
        value           uniform 2;
    }
    inout1_half0
    {
        type            cyclic;
    }
    inout1_half1
    {
        type            cyclic;
    }
    inout2_half0
    {
        type            cyclic;
    }
    inout2_half1
    {
        type            cyclic;
    }
}


// ************************************************************************* //
