/*--------------------------------*- C++ -*----------------------------------*\
| =========                 |                                                 |
| \\      /  F ield         | OpenFOAM: The Open Source CFD Toolbox           |
|  \\    /   O peration     | Version:  2212                                  |
|   \\  /    A nd           | Website:  www.openfoam.com                      |
|    \\/     M anipulation  |                                                 |
\*---------------------------------------------------------------------------*/
FoamFile
{
    version     2.0;
    format      ascii;
    arch        "LSB;label=32;scalar=64";
    class       volScalarField;
    location    "0";
    object      V;
}
// * * * * * * * * * * * * * * * * * * * * * * * * * * * * * * * * * * * * * //

dimensions      [0 3 0 0 0 0 0];

internalField   nonuniform List<scalar> 
120
(
0.072
0.0724818
0.0723077
0.071484
0.0700399
0.0680257
0.065509
0.0625699
0.059296
0.0557774
0.0521022
0.0483522
0.0446009
0.0409112
0.0373346
0.0339114
0.0306713
0.0276342
0.0248116
0.0222079
0.0198222
0.0176487
0.0156788
0.0139013
0.0123038
0.0108731
0.00959559
0.00845799
0.00744734
0.00655131
0.00575835
0.0050577
0.00443948
0.00389465
0.00341501
0.00299316
0.00262243
0.00229686
0.00201113
0.0017605
0.00154076
0.00134819
0.00117948
0.00103173
0.000902378
0.000789152
0.000690062
0.000603364
0.000527518
0.000461176
0.000403152
0.000352412
0.000308045
0.000269252
0.000235337
0.000205687
0.00017977
0.000157112
0.00013731
0.00012
0.00012
0.000137309
0.000157113
0.000179769
0.000205688
0.000235337
0.000269252
0.000308045
0.000352412
0.000403153
0.000461175
0.000527518
0.000603364
0.000690063
0.000789151
0.000902379
0.00103173
0.00117948
0.00134819
0.00154076
0.0017605
0.00201113
0.00229686
0.00262243
0.00299316
0.00341501
0.00389465
0.00443948
0.0050577
0.00575835
0.00655131
0.00744734
0.00845799
0.00959558
0.0108731
0.0123038
0.0139013
0.0156788
0.0176487
0.0198222
0.0222079
0.0248116
0.0276342
0.0306713
0.0339114
0.0373346
0.0409112
0.0446009
0.0483522
0.0521022
0.0557774
0.059296
0.0625699
0.065509
0.0680257
0.0700399
0.071484
0.0723077
0.0724818
0.072
)
;

boundaryField
{
    bottomWall
    {
        type            calculated;
        value           uniform 0;
    }
    sides1_half01
    {
        type            empty;
    }
    sides1_half11
    {
        type            empty;
    }
    sides2_half01
    {
        type            empty;
    }
    sides2_half11
    {
        type            empty;
    }
    topWall
    {
        type            calculated;
        value           uniform 0;
    }
    inout1_half0
    {
        type            cyclic;
    }
    inout1_half1
    {
        type            cyclic;
    }
    inout2_half0
    {
        type            cyclic;
    }
    inout2_half1
    {
        type            cyclic;
    }
}


// ************************************************************************* //
