# Wall shear stress
# Time          	patch           	min             	max             
1000            	down	(-3.60765098e+00 -1.49240762e+00 -1.71305473e-16)	(7.97824883e-01 3.09085594e-01 1.53745318e-16)
2000            	down	(-3.60764275e+00 -1.49240495e+00 -1.71322129e-16)	(7.97612530e-01 3.09078548e-01 1.53725366e-16)
3000            	down	(-3.60764254e+00 -1.49240503e+00 -1.71318976e-16)	(7.97610910e-01 3.09079651e-01 1.53729610e-16)
4000            	down	(-3.60764386e+00 -1.49240514e+00 -1.71323212e-16)	(7.97610707e-01 3.09079853e-01 1.53724968e-16)
5000            	down	(-3.60764319e+00 -1.49240519e+00 -1.71321811e-16)	(7.97611052e-01 3.09079687e-01 1.53724872e-16)
