/*--------------------------------*- C++ -*----------------------------------*\
| =========                 |                                                 |
| \\      /  F ield         | OpenFOAM: The Open Source CFD Toolbox           |
|  \\    /   O peration     | Version:  2212                                  |
|   \\  /    A nd           | Website:  www.openfoam.com                      |
|    \\/     M anipulation  |                                                 |
\*---------------------------------------------------------------------------*/
FoamFile
{
    version     2.0;
    format      ascii;
    arch        "LSB;label=32;scalar=64";
    class       volVectorField;
    location    "0";
    object      C;
}
// * * * * * * * * * * * * * * * * * * * * * * * * * * * * * * * * * * * * * //

dimensions      [0 1 0 0 0 0 0];

internalField   nonuniform List<vector> 
4800
(
(-5.1 0.001 0.000900901)
(-5.1 0.001 0.00285702)
(-5.1 0.001 0.00514809)
(-5.1 0.001 0.00783112)
(-5.1 0.001 0.0109727)
(-5.1 0.001 0.0146507)
(-5.1 0.001 0.0189556)
(-5.1 0.001 0.0239934)
(-5.1 0.001 0.0298872)
(-5.1 0.001 0.0367802)
(-5.1 0.001 0.0448389)
(-5.1 0.001 0.0542563)
(-5.1 0.001 0.0652562)
(-5.1 0.001 0.0780967)
(-5.1 0.001 0.0930757)
(-5.1 0.001 0.110535)
(-5.1 0.001 0.130868)
(-5.1 0.001 0.15452)
(-5.1 0.001 0.181999)
(-5.1 0.001 0.213878)
(-5.1 0.001 0.250798)
(-5.1 0.001 0.293473)
(-5.1 0.001 0.342689)
(-5.1 0.001 0.399299)
(-5.1 0.001 0.464218)
(-5.1 0.001 0.538412)
(-5.1 0.001 0.622871)
(-5.1 0.001 0.718587)
(-5.1 0.001 0.82651)
(-5.1 0.001 0.947507)
(-5.1 0.001 1.08229)
(-5.1 0.001 1.23138)
(-5.1 0.001 1.39499)
(-5.1 0.001 1.57299)
(-5.1 0.001 1.76485)
(-5.1 0.001 1.96956)
(-5.1 0.001 2.18565)
(-5.1 0.001 2.41117)
(-5.1 0.001 2.64377)
(-5.1 0.001 2.88076)
(-5.1 0.001 3.11924)
(-5.1 0.001 3.35623)
(-5.1 0.001 3.58883)
(-5.1 0.001 3.81435)
(-5.1 0.001 4.03044)
(-5.1 0.001 4.23515)
(-5.1 0.001 4.42701)
(-5.1 0.001 4.60501)
(-5.1 0.001 4.76862)
(-5.1 0.001 4.91771)
(-5.1 0.001 5.05249)
(-5.1 0.001 5.17349)
(-5.1 0.001 5.28141)
(-5.1 0.001 5.37713)
(-5.1 0.001 5.46159)
(-5.1 0.001 5.53578)
(-5.1 0.001 5.6007)
(-5.1 0.001 5.65731)
(-5.1 0.001 5.70653)
(-5.1 0.001 5.7492)
(-5.1 0.001 5.78612)
(-5.1 0.001 5.818)
(-5.1 0.001 5.84548)
(-5.1 0.001 5.86913)
(-5.1 0.001 5.88946)
(-5.1 0.001 5.90692)
(-5.1 0.001 5.9219)
(-5.1 0.001 5.93474)
(-5.1 0.001 5.94574)
(-5.1 0.001 5.95516)
(-5.1 0.001 5.96322)
(-5.1 0.001 5.97011)
(-5.1 0.001 5.97601)
(-5.1 0.001 5.98104)
(-5.1 0.001 5.98535)
(-5.1 0.001 5.98903)
(-5.1 0.001 5.99217)
(-5.1 0.001 5.99485)
(-5.1 0.001 5.99714)
(-5.1 0.001 5.9991)
(-5.1 0.00318878 0.000900901)
(-5.1 0.00318878 0.00285702)
(-5.1 0.00318878 0.00514809)
(-5.1 0.00318878 0.00783112)
(-5.1 0.00318878 0.0109727)
(-5.1 0.00318878 0.0146507)
(-5.1 0.00318878 0.0189556)
(-5.1 0.00318878 0.0239934)
(-5.1 0.00318878 0.0298872)
(-5.1 0.00318878 0.0367802)
(-5.1 0.00318878 0.0448389)
(-5.1 0.00318878 0.0542563)
(-5.1 0.00318878 0.0652562)
(-5.1 0.00318878 0.0780967)
(-5.1 0.00318878 0.0930757)
(-5.1 0.00318878 0.110535)
(-5.1 0.00318878 0.130868)
(-5.1 0.00318878 0.15452)
(-5.1 0.00318878 0.181999)
(-5.1 0.00318878 0.213878)
(-5.1 0.00318878 0.250798)
(-5.1 0.00318878 0.293473)
(-5.1 0.00318878 0.342689)
(-5.1 0.00318878 0.399299)
(-5.1 0.00318878 0.464218)
(-5.1 0.00318878 0.538412)
(-5.1 0.00318878 0.622871)
(-5.1 0.00318878 0.718587)
(-5.1 0.00318878 0.82651)
(-5.1 0.00318878 0.947507)
(-5.1 0.00318878 1.08229)
(-5.1 0.00318878 1.23138)
(-5.1 0.00318878 1.39499)
(-5.1 0.00318878 1.57299)
(-5.1 0.00318878 1.76485)
(-5.1 0.00318878 1.96956)
(-5.1 0.00318878 2.18565)
(-5.1 0.00318878 2.41117)
(-5.1 0.00318878 2.64377)
(-5.1 0.00318878 2.88076)
(-5.1 0.00318878 3.11924)
(-5.1 0.00318878 3.35623)
(-5.1 0.00318878 3.58883)
(-5.1 0.00318878 3.81435)
(-5.1 0.00318878 4.03044)
(-5.1 0.00318878 4.23515)
(-5.1 0.00318878 4.42701)
(-5.1 0.00318878 4.60501)
(-5.1 0.00318878 4.76862)
(-5.1 0.00318878 4.91771)
(-5.1 0.00318878 5.05249)
(-5.1 0.00318878 5.17349)
(-5.1 0.00318878 5.28141)
(-5.1 0.00318878 5.37713)
(-5.1 0.00318878 5.46159)
(-5.1 0.00318878 5.53578)
(-5.1 0.00318878 5.6007)
(-5.1 0.00318878 5.65731)
(-5.1 0.00318878 5.70653)
(-5.1 0.00318878 5.7492)
(-5.1 0.00318878 5.78612)
(-5.1 0.00318878 5.818)
(-5.1 0.00318878 5.84548)
(-5.1 0.00318878 5.86913)
(-5.1 0.00318878 5.88946)
(-5.1 0.00318878 5.90692)
(-5.1 0.00318878 5.9219)
(-5.1 0.00318878 5.93474)
(-5.1 0.00318878 5.94574)
(-5.1 0.00318878 5.95516)
(-5.1 0.00318878 5.96322)
(-5.1 0.00318878 5.97011)
(-5.1 0.00318878 5.97601)
(-5.1 0.00318878 5.98104)
(-5.1 0.00318878 5.98535)
(-5.1 0.00318878 5.98903)
(-5.1 0.00318878 5.99217)
(-5.1 0.00318878 5.99485)
(-5.1 0.00318878 5.99714)
(-5.1 0.00318878 5.9991)
(-5.1 0.00579018 0.000900901)
(-5.1 0.00579018 0.00285702)
(-5.1 0.00579018 0.00514809)
(-5.1 0.00579018 0.00783112)
(-5.1 0.00579018 0.0109727)
(-5.1 0.00579018 0.0146507)
(-5.1 0.00579018 0.0189556)
(-5.1 0.00579018 0.0239934)
(-5.1 0.00579018 0.0298872)
(-5.1 0.00579018 0.0367802)
(-5.1 0.00579018 0.0448389)
(-5.1 0.00579018 0.0542563)
(-5.1 0.00579018 0.0652562)
(-5.1 0.00579018 0.0780967)
(-5.1 0.00579018 0.0930757)
(-5.1 0.00579018 0.110535)
(-5.1 0.00579018 0.130868)
(-5.1 0.00579018 0.15452)
(-5.1 0.00579018 0.181999)
(-5.1 0.00579018 0.213878)
(-5.1 0.00579018 0.250798)
(-5.1 0.00579018 0.293473)
(-5.1 0.00579018 0.342689)
(-5.1 0.00579018 0.399299)
(-5.1 0.00579018 0.464218)
(-5.1 0.00579018 0.538412)
(-5.1 0.00579018 0.622871)
(-5.1 0.00579018 0.718587)
(-5.1 0.00579018 0.82651)
(-5.1 0.00579018 0.947507)
(-5.1 0.00579018 1.08229)
(-5.1 0.00579018 1.23138)
(-5.1 0.00579018 1.39499)
(-5.1 0.00579018 1.57299)
(-5.1 0.00579018 1.76485)
(-5.1 0.00579018 1.96956)
(-5.1 0.00579018 2.18565)
(-5.1 0.00579018 2.41117)
(-5.1 0.00579018 2.64377)
(-5.1 0.00579018 2.88076)
(-5.1 0.00579018 3.11924)
(-5.1 0.00579018 3.35623)
(-5.1 0.00579018 3.58883)
(-5.1 0.00579018 3.81435)
(-5.1 0.00579018 4.03044)
(-5.1 0.00579018 4.23515)
(-5.1 0.00579018 4.42701)
(-5.1 0.00579018 4.60501)
(-5.1 0.00579018 4.76862)
(-5.1 0.00579018 4.91771)
(-5.1 0.00579018 5.05249)
(-5.1 0.00579018 5.17349)
(-5.1 0.00579018 5.28141)
(-5.1 0.00579018 5.37713)
(-5.1 0.00579018 5.46159)
(-5.1 0.00579018 5.53578)
(-5.1 0.00579018 5.6007)
(-5.1 0.00579018 5.65731)
(-5.1 0.00579018 5.70653)
(-5.1 0.00579018 5.7492)
(-5.1 0.00579018 5.78612)
(-5.1 0.00579018 5.818)
(-5.1 0.00579018 5.84548)
(-5.1 0.00579018 5.86913)
(-5.1 0.00579018 5.88946)
(-5.1 0.00579018 5.90692)
(-5.1 0.00579018 5.9219)
(-5.1 0.00579018 5.93474)
(-5.1 0.00579018 5.94574)
(-5.1 0.00579018 5.95516)
(-5.1 0.00579018 5.96322)
(-5.1 0.00579018 5.97011)
(-5.1 0.00579018 5.97601)
(-5.1 0.00579018 5.98104)
(-5.1 0.00579018 5.98535)
(-5.1 0.00579018 5.98903)
(-5.1 0.00579018 5.99217)
(-5.1 0.00579018 5.99485)
(-5.1 0.00579018 5.99714)
(-5.1 0.00579018 5.9991)
(-5.1 0.00888057 0.000900901)
(-5.1 0.00888057 0.00285702)
(-5.1 0.00888057 0.00514809)
(-5.1 0.00888057 0.00783112)
(-5.1 0.00888057 0.0109727)
(-5.1 0.00888057 0.0146507)
(-5.1 0.00888057 0.0189556)
(-5.1 0.00888057 0.0239934)
(-5.1 0.00888057 0.0298872)
(-5.1 0.00888057 0.0367802)
(-5.1 0.00888057 0.0448389)
(-5.1 0.00888057 0.0542563)
(-5.1 0.00888057 0.0652562)
(-5.1 0.00888057 0.0780967)
(-5.1 0.00888057 0.0930757)
(-5.1 0.00888057 0.110535)
(-5.1 0.00888057 0.130868)
(-5.1 0.00888057 0.15452)
(-5.1 0.00888057 0.181999)
(-5.1 0.00888057 0.213878)
(-5.1 0.00888057 0.250798)
(-5.1 0.00888057 0.293473)
(-5.1 0.00888057 0.342689)
(-5.1 0.00888057 0.399299)
(-5.1 0.00888057 0.464218)
(-5.1 0.00888057 0.538412)
(-5.1 0.00888057 0.622871)
(-5.1 0.00888057 0.718587)
(-5.1 0.00888057 0.82651)
(-5.1 0.00888057 0.947507)
(-5.1 0.00888057 1.08229)
(-5.1 0.00888057 1.23138)
(-5.1 0.00888057 1.39499)
(-5.1 0.00888057 1.57299)
(-5.1 0.00888057 1.76485)
(-5.1 0.00888057 1.96956)
(-5.1 0.00888057 2.18565)
(-5.1 0.00888057 2.41117)
(-5.1 0.00888057 2.64377)
(-5.1 0.00888057 2.88076)
(-5.1 0.00888057 3.11924)
(-5.1 0.00888057 3.35623)
(-5.1 0.00888057 3.58883)
(-5.1 0.00888057 3.81435)
(-5.1 0.00888057 4.03044)
(-5.1 0.00888057 4.23515)
(-5.1 0.00888057 4.42701)
(-5.1 0.00888057 4.60501)
(-5.1 0.00888057 4.76862)
(-5.1 0.00888057 4.91771)
(-5.1 0.00888057 5.05249)
(-5.1 0.00888057 5.17349)
(-5.1 0.00888057 5.28141)
(-5.1 0.00888057 5.37713)
(-5.1 0.00888057 5.46159)
(-5.1 0.00888057 5.53578)
(-5.1 0.00888057 5.6007)
(-5.1 0.00888057 5.65731)
(-5.1 0.00888057 5.70653)
(-5.1 0.00888057 5.7492)
(-5.1 0.00888057 5.78612)
(-5.1 0.00888057 5.818)
(-5.1 0.00888057 5.84548)
(-5.1 0.00888057 5.86913)
(-5.1 0.00888057 5.88946)
(-5.1 0.00888057 5.90692)
(-5.1 0.00888057 5.9219)
(-5.1 0.00888057 5.93474)
(-5.1 0.00888057 5.94574)
(-5.1 0.00888057 5.95516)
(-5.1 0.00888057 5.96322)
(-5.1 0.00888057 5.97011)
(-5.1 0.00888057 5.97601)
(-5.1 0.00888057 5.98104)
(-5.1 0.00888057 5.98535)
(-5.1 0.00888057 5.98903)
(-5.1 0.00888057 5.99217)
(-5.1 0.00888057 5.99485)
(-5.1 0.00888057 5.99714)
(-5.1 0.00888057 5.9991)
(-5.1 0.0125499 0.000900901)
(-5.1 0.0125499 0.00285702)
(-5.1 0.0125499 0.00514809)
(-5.1 0.0125499 0.00783112)
(-5.1 0.0125499 0.0109727)
(-5.1 0.0125499 0.0146507)
(-5.1 0.0125499 0.0189556)
(-5.1 0.0125499 0.0239934)
(-5.1 0.0125499 0.0298872)
(-5.1 0.0125499 0.0367802)
(-5.1 0.0125499 0.0448389)
(-5.1 0.0125499 0.0542563)
(-5.1 0.0125499 0.0652562)
(-5.1 0.0125499 0.0780967)
(-5.1 0.0125499 0.0930757)
(-5.1 0.0125499 0.110535)
(-5.1 0.0125499 0.130868)
(-5.1 0.0125499 0.15452)
(-5.1 0.0125499 0.181999)
(-5.1 0.0125499 0.213878)
(-5.1 0.0125499 0.250798)
(-5.1 0.0125499 0.293473)
(-5.1 0.0125499 0.342689)
(-5.1 0.0125499 0.399299)
(-5.1 0.0125499 0.464218)
(-5.1 0.0125499 0.538412)
(-5.1 0.0125499 0.622871)
(-5.1 0.0125499 0.718587)
(-5.1 0.0125499 0.82651)
(-5.1 0.0125499 0.947507)
(-5.1 0.0125499 1.08229)
(-5.1 0.0125499 1.23138)
(-5.1 0.0125499 1.39499)
(-5.1 0.0125499 1.57299)
(-5.1 0.0125499 1.76485)
(-5.1 0.0125499 1.96956)
(-5.1 0.0125499 2.18565)
(-5.1 0.0125499 2.41117)
(-5.1 0.0125499 2.64377)
(-5.1 0.0125499 2.88076)
(-5.1 0.0125499 3.11924)
(-5.1 0.0125499 3.35623)
(-5.1 0.0125499 3.58883)
(-5.1 0.0125499 3.81435)
(-5.1 0.0125499 4.03044)
(-5.1 0.0125499 4.23515)
(-5.1 0.0125499 4.42701)
(-5.1 0.0125499 4.60501)
(-5.1 0.0125499 4.76862)
(-5.1 0.0125499 4.91771)
(-5.1 0.0125499 5.05249)
(-5.1 0.0125499 5.17349)
(-5.1 0.0125499 5.28141)
(-5.1 0.0125499 5.37713)
(-5.1 0.0125499 5.46159)
(-5.1 0.0125499 5.53578)
(-5.1 0.0125499 5.6007)
(-5.1 0.0125499 5.65731)
(-5.1 0.0125499 5.70653)
(-5.1 0.0125499 5.7492)
(-5.1 0.0125499 5.78612)
(-5.1 0.0125499 5.818)
(-5.1 0.0125499 5.84548)
(-5.1 0.0125499 5.86913)
(-5.1 0.0125499 5.88946)
(-5.1 0.0125499 5.90692)
(-5.1 0.0125499 5.9219)
(-5.1 0.0125499 5.93474)
(-5.1 0.0125499 5.94574)
(-5.1 0.0125499 5.95516)
(-5.1 0.0125499 5.96322)
(-5.1 0.0125499 5.97011)
(-5.1 0.0125499 5.97601)
(-5.1 0.0125499 5.98104)
(-5.1 0.0125499 5.98535)
(-5.1 0.0125499 5.98903)
(-5.1 0.0125499 5.99217)
(-5.1 0.0125499 5.99485)
(-5.1 0.0125499 5.99714)
(-5.1 0.0125499 5.9991)
(-5.1 0.0169038 0.000900901)
(-5.1 0.0169038 0.00285702)
(-5.1 0.0169038 0.00514809)
(-5.1 0.0169038 0.00783112)
(-5.1 0.0169038 0.0109727)
(-5.1 0.0169038 0.0146507)
(-5.1 0.0169038 0.0189556)
(-5.1 0.0169038 0.0239934)
(-5.1 0.0169038 0.0298872)
(-5.1 0.0169038 0.0367802)
(-5.1 0.0169038 0.0448389)
(-5.1 0.0169038 0.0542563)
(-5.1 0.0169038 0.0652562)
(-5.1 0.0169038 0.0780967)
(-5.1 0.0169038 0.0930757)
(-5.1 0.0169038 0.110535)
(-5.1 0.0169038 0.130868)
(-5.1 0.0169038 0.15452)
(-5.1 0.0169038 0.181999)
(-5.1 0.0169038 0.213878)
(-5.1 0.0169038 0.250798)
(-5.1 0.0169038 0.293473)
(-5.1 0.0169038 0.342689)
(-5.1 0.0169038 0.399299)
(-5.1 0.0169038 0.464218)
(-5.1 0.0169038 0.538412)
(-5.1 0.0169038 0.622871)
(-5.1 0.0169038 0.718587)
(-5.1 0.0169038 0.82651)
(-5.1 0.0169038 0.947507)
(-5.1 0.0169038 1.08229)
(-5.1 0.0169038 1.23138)
(-5.1 0.0169038 1.39499)
(-5.1 0.0169038 1.57299)
(-5.1 0.0169038 1.76485)
(-5.1 0.0169038 1.96956)
(-5.1 0.0169038 2.18565)
(-5.1 0.0169038 2.41117)
(-5.1 0.0169038 2.64377)
(-5.1 0.0169038 2.88076)
(-5.1 0.0169038 3.11924)
(-5.1 0.0169038 3.35623)
(-5.1 0.0169038 3.58883)
(-5.1 0.0169038 3.81435)
(-5.1 0.0169038 4.03044)
(-5.1 0.0169038 4.23515)
(-5.1 0.0169038 4.42701)
(-5.1 0.0169038 4.60501)
(-5.1 0.0169038 4.76862)
(-5.1 0.0169038 4.91771)
(-5.1 0.0169038 5.05249)
(-5.1 0.0169038 5.17349)
(-5.1 0.0169038 5.28141)
(-5.1 0.0169038 5.37713)
(-5.1 0.0169038 5.46159)
(-5.1 0.0169038 5.53578)
(-5.1 0.0169038 5.6007)
(-5.1 0.0169038 5.65731)
(-5.1 0.0169038 5.70653)
(-5.1 0.0169038 5.7492)
(-5.1 0.0169038 5.78612)
(-5.1 0.0169038 5.818)
(-5.1 0.0169038 5.84548)
(-5.1 0.0169038 5.86913)
(-5.1 0.0169038 5.88946)
(-5.1 0.0169038 5.90692)
(-5.1 0.0169038 5.9219)
(-5.1 0.0169038 5.93474)
(-5.1 0.0169038 5.94574)
(-5.1 0.0169038 5.95516)
(-5.1 0.0169038 5.96322)
(-5.1 0.0169038 5.97011)
(-5.1 0.0169038 5.97601)
(-5.1 0.0169038 5.98104)
(-5.1 0.0169038 5.98535)
(-5.1 0.0169038 5.98903)
(-5.1 0.0169038 5.99217)
(-5.1 0.0169038 5.99485)
(-5.1 0.0169038 5.99714)
(-5.1 0.0169038 5.9991)
(-5.1 0.022066 0.000900901)
(-5.1 0.022066 0.00285702)
(-5.1 0.022066 0.00514809)
(-5.1 0.022066 0.00783112)
(-5.1 0.022066 0.0109727)
(-5.1 0.022066 0.0146507)
(-5.1 0.022066 0.0189556)
(-5.1 0.022066 0.0239934)
(-5.1 0.022066 0.0298872)
(-5.1 0.022066 0.0367802)
(-5.1 0.022066 0.0448389)
(-5.1 0.022066 0.0542563)
(-5.1 0.022066 0.0652562)
(-5.1 0.022066 0.0780967)
(-5.1 0.022066 0.0930757)
(-5.1 0.022066 0.110535)
(-5.1 0.022066 0.130868)
(-5.1 0.022066 0.15452)
(-5.1 0.022066 0.181999)
(-5.1 0.022066 0.213878)
(-5.1 0.022066 0.250798)
(-5.1 0.022066 0.293473)
(-5.1 0.022066 0.342689)
(-5.1 0.022066 0.399299)
(-5.1 0.022066 0.464218)
(-5.1 0.022066 0.538412)
(-5.1 0.022066 0.622871)
(-5.1 0.022066 0.718587)
(-5.1 0.022066 0.82651)
(-5.1 0.022066 0.947507)
(-5.1 0.022066 1.08229)
(-5.1 0.022066 1.23138)
(-5.1 0.022066 1.39499)
(-5.1 0.022066 1.57299)
(-5.1 0.022066 1.76485)
(-5.1 0.022066 1.96956)
(-5.1 0.022066 2.18565)
(-5.1 0.022066 2.41117)
(-5.1 0.022066 2.64377)
(-5.1 0.022066 2.88076)
(-5.1 0.022066 3.11924)
(-5.1 0.022066 3.35623)
(-5.1 0.022066 3.58883)
(-5.1 0.022066 3.81435)
(-5.1 0.022066 4.03044)
(-5.1 0.022066 4.23515)
(-5.1 0.022066 4.42701)
(-5.1 0.022066 4.60501)
(-5.1 0.022066 4.76862)
(-5.1 0.022066 4.91771)
(-5.1 0.022066 5.05249)
(-5.1 0.022066 5.17349)
(-5.1 0.022066 5.28141)
(-5.1 0.022066 5.37713)
(-5.1 0.022066 5.46159)
(-5.1 0.022066 5.53578)
(-5.1 0.022066 5.6007)
(-5.1 0.022066 5.65731)
(-5.1 0.022066 5.70653)
(-5.1 0.022066 5.7492)
(-5.1 0.022066 5.78612)
(-5.1 0.022066 5.818)
(-5.1 0.022066 5.84548)
(-5.1 0.022066 5.86913)
(-5.1 0.022066 5.88946)
(-5.1 0.022066 5.90692)
(-5.1 0.022066 5.9219)
(-5.1 0.022066 5.93474)
(-5.1 0.022066 5.94574)
(-5.1 0.022066 5.95516)
(-5.1 0.022066 5.96322)
(-5.1 0.022066 5.97011)
(-5.1 0.022066 5.97601)
(-5.1 0.022066 5.98104)
(-5.1 0.022066 5.98535)
(-5.1 0.022066 5.98903)
(-5.1 0.022066 5.99217)
(-5.1 0.022066 5.99485)
(-5.1 0.022066 5.99714)
(-5.1 0.022066 5.9991)
(-5.1 0.0281811 0.000900901)
(-5.1 0.0281811 0.00285702)
(-5.1 0.0281811 0.00514809)
(-5.1 0.0281811 0.00783112)
(-5.1 0.0281811 0.0109727)
(-5.1 0.0281811 0.0146507)
(-5.1 0.0281811 0.0189556)
(-5.1 0.0281811 0.0239934)
(-5.1 0.0281811 0.0298872)
(-5.1 0.0281811 0.0367802)
(-5.1 0.0281811 0.0448389)
(-5.1 0.0281811 0.0542563)
(-5.1 0.0281811 0.0652562)
(-5.1 0.0281811 0.0780967)
(-5.1 0.0281811 0.0930757)
(-5.1 0.0281811 0.110535)
(-5.1 0.0281811 0.130868)
(-5.1 0.0281811 0.15452)
(-5.1 0.0281811 0.181999)
(-5.1 0.0281811 0.213878)
(-5.1 0.0281811 0.250798)
(-5.1 0.0281811 0.293473)
(-5.1 0.0281811 0.342689)
(-5.1 0.0281811 0.399299)
(-5.1 0.0281811 0.464218)
(-5.1 0.0281811 0.538412)
(-5.1 0.0281811 0.622871)
(-5.1 0.0281811 0.718587)
(-5.1 0.0281811 0.82651)
(-5.1 0.0281811 0.947507)
(-5.1 0.0281811 1.08229)
(-5.1 0.0281811 1.23138)
(-5.1 0.0281811 1.39499)
(-5.1 0.0281811 1.57299)
(-5.1 0.0281811 1.76485)
(-5.1 0.0281811 1.96956)
(-5.1 0.0281811 2.18565)
(-5.1 0.0281811 2.41117)
(-5.1 0.0281811 2.64377)
(-5.1 0.0281811 2.88076)
(-5.1 0.0281811 3.11924)
(-5.1 0.0281811 3.35623)
(-5.1 0.0281811 3.58883)
(-5.1 0.0281811 3.81435)
(-5.1 0.0281811 4.03044)
(-5.1 0.0281811 4.23515)
(-5.1 0.0281811 4.42701)
(-5.1 0.0281811 4.60501)
(-5.1 0.0281811 4.76862)
(-5.1 0.0281811 4.91771)
(-5.1 0.0281811 5.05249)
(-5.1 0.0281811 5.17349)
(-5.1 0.0281811 5.28141)
(-5.1 0.0281811 5.37713)
(-5.1 0.0281811 5.46159)
(-5.1 0.0281811 5.53578)
(-5.1 0.0281811 5.6007)
(-5.1 0.0281811 5.65731)
(-5.1 0.0281811 5.70653)
(-5.1 0.0281811 5.7492)
(-5.1 0.0281811 5.78612)
(-5.1 0.0281811 5.818)
(-5.1 0.0281811 5.84548)
(-5.1 0.0281811 5.86913)
(-5.1 0.0281811 5.88946)
(-5.1 0.0281811 5.90692)
(-5.1 0.0281811 5.9219)
(-5.1 0.0281811 5.93474)
(-5.1 0.0281811 5.94574)
(-5.1 0.0281811 5.95516)
(-5.1 0.0281811 5.96322)
(-5.1 0.0281811 5.97011)
(-5.1 0.0281811 5.97601)
(-5.1 0.0281811 5.98104)
(-5.1 0.0281811 5.98535)
(-5.1 0.0281811 5.98903)
(-5.1 0.0281811 5.99217)
(-5.1 0.0281811 5.99485)
(-5.1 0.0281811 5.99714)
(-5.1 0.0281811 5.9991)
(-5.1 0.0354172 0.000900901)
(-5.1 0.0354172 0.00285702)
(-5.1 0.0354172 0.00514809)
(-5.1 0.0354172 0.00783112)
(-5.1 0.0354172 0.0109727)
(-5.1 0.0354172 0.0146507)
(-5.1 0.0354172 0.0189556)
(-5.1 0.0354172 0.0239934)
(-5.1 0.0354172 0.0298872)
(-5.1 0.0354172 0.0367802)
(-5.1 0.0354172 0.0448389)
(-5.1 0.0354172 0.0542563)
(-5.1 0.0354172 0.0652562)
(-5.1 0.0354172 0.0780967)
(-5.1 0.0354172 0.0930757)
(-5.1 0.0354172 0.110535)
(-5.1 0.0354172 0.130868)
(-5.1 0.0354172 0.15452)
(-5.1 0.0354172 0.181999)
(-5.1 0.0354172 0.213878)
(-5.1 0.0354172 0.250798)
(-5.1 0.0354172 0.293473)
(-5.1 0.0354172 0.342689)
(-5.1 0.0354172 0.399299)
(-5.1 0.0354172 0.464218)
(-5.1 0.0354172 0.538412)
(-5.1 0.0354172 0.622871)
(-5.1 0.0354172 0.718587)
(-5.1 0.0354172 0.82651)
(-5.1 0.0354172 0.947507)
(-5.1 0.0354172 1.08229)
(-5.1 0.0354172 1.23138)
(-5.1 0.0354172 1.39499)
(-5.1 0.0354172 1.57299)
(-5.1 0.0354172 1.76485)
(-5.1 0.0354172 1.96956)
(-5.1 0.0354172 2.18565)
(-5.1 0.0354172 2.41117)
(-5.1 0.0354172 2.64377)
(-5.1 0.0354172 2.88076)
(-5.1 0.0354172 3.11924)
(-5.1 0.0354172 3.35623)
(-5.1 0.0354172 3.58883)
(-5.1 0.0354172 3.81435)
(-5.1 0.0354172 4.03044)
(-5.1 0.0354172 4.23515)
(-5.1 0.0354172 4.42701)
(-5.1 0.0354172 4.60501)
(-5.1 0.0354172 4.76862)
(-5.1 0.0354172 4.91771)
(-5.1 0.0354172 5.05249)
(-5.1 0.0354172 5.17349)
(-5.1 0.0354172 5.28141)
(-5.1 0.0354172 5.37713)
(-5.1 0.0354172 5.46159)
(-5.1 0.0354172 5.53578)
(-5.1 0.0354172 5.6007)
(-5.1 0.0354172 5.65731)
(-5.1 0.0354172 5.70653)
(-5.1 0.0354172 5.7492)
(-5.1 0.0354172 5.78612)
(-5.1 0.0354172 5.818)
(-5.1 0.0354172 5.84548)
(-5.1 0.0354172 5.86913)
(-5.1 0.0354172 5.88946)
(-5.1 0.0354172 5.90692)
(-5.1 0.0354172 5.9219)
(-5.1 0.0354172 5.93474)
(-5.1 0.0354172 5.94574)
(-5.1 0.0354172 5.95516)
(-5.1 0.0354172 5.96322)
(-5.1 0.0354172 5.97011)
(-5.1 0.0354172 5.97601)
(-5.1 0.0354172 5.98104)
(-5.1 0.0354172 5.98535)
(-5.1 0.0354172 5.98903)
(-5.1 0.0354172 5.99217)
(-5.1 0.0354172 5.99485)
(-5.1 0.0354172 5.99714)
(-5.1 0.0354172 5.9991)
(-5.1 0.043969 0.000900901)
(-5.1 0.043969 0.00285702)
(-5.1 0.043969 0.00514809)
(-5.1 0.043969 0.00783112)
(-5.1 0.043969 0.0109727)
(-5.1 0.043969 0.0146507)
(-5.1 0.043969 0.0189556)
(-5.1 0.043969 0.0239934)
(-5.1 0.043969 0.0298872)
(-5.1 0.043969 0.0367802)
(-5.1 0.043969 0.0448389)
(-5.1 0.043969 0.0542563)
(-5.1 0.043969 0.0652562)
(-5.1 0.043969 0.0780967)
(-5.1 0.043969 0.0930757)
(-5.1 0.043969 0.110535)
(-5.1 0.043969 0.130868)
(-5.1 0.043969 0.15452)
(-5.1 0.043969 0.181999)
(-5.1 0.043969 0.213878)
(-5.1 0.043969 0.250798)
(-5.1 0.043969 0.293473)
(-5.1 0.043969 0.342689)
(-5.1 0.043969 0.399299)
(-5.1 0.043969 0.464218)
(-5.1 0.043969 0.538412)
(-5.1 0.043969 0.622871)
(-5.1 0.043969 0.718587)
(-5.1 0.043969 0.82651)
(-5.1 0.043969 0.947507)
(-5.1 0.043969 1.08229)
(-5.1 0.043969 1.23138)
(-5.1 0.043969 1.39499)
(-5.1 0.043969 1.57299)
(-5.1 0.043969 1.76485)
(-5.1 0.043969 1.96956)
(-5.1 0.043969 2.18565)
(-5.1 0.043969 2.41117)
(-5.1 0.043969 2.64377)
(-5.1 0.043969 2.88076)
(-5.1 0.043969 3.11924)
(-5.1 0.043969 3.35623)
(-5.1 0.043969 3.58883)
(-5.1 0.043969 3.81435)
(-5.1 0.043969 4.03044)
(-5.1 0.043969 4.23515)
(-5.1 0.043969 4.42701)
(-5.1 0.043969 4.60501)
(-5.1 0.043969 4.76862)
(-5.1 0.043969 4.91771)
(-5.1 0.043969 5.05249)
(-5.1 0.043969 5.17349)
(-5.1 0.043969 5.28141)
(-5.1 0.043969 5.37713)
(-5.1 0.043969 5.46159)
(-5.1 0.043969 5.53578)
(-5.1 0.043969 5.6007)
(-5.1 0.043969 5.65731)
(-5.1 0.043969 5.70653)
(-5.1 0.043969 5.7492)
(-5.1 0.043969 5.78612)
(-5.1 0.043969 5.818)
(-5.1 0.043969 5.84548)
(-5.1 0.043969 5.86913)
(-5.1 0.043969 5.88946)
(-5.1 0.043969 5.90692)
(-5.1 0.043969 5.9219)
(-5.1 0.043969 5.93474)
(-5.1 0.043969 5.94574)
(-5.1 0.043969 5.95516)
(-5.1 0.043969 5.96322)
(-5.1 0.043969 5.97011)
(-5.1 0.043969 5.97601)
(-5.1 0.043969 5.98104)
(-5.1 0.043969 5.98535)
(-5.1 0.043969 5.98903)
(-5.1 0.043969 5.99217)
(-5.1 0.043969 5.99485)
(-5.1 0.043969 5.99714)
(-5.1 0.043969 5.9991)
(-5.1 0.0540605 0.000900901)
(-5.1 0.0540605 0.00285702)
(-5.1 0.0540605 0.00514809)
(-5.1 0.0540605 0.00783112)
(-5.1 0.0540605 0.0109727)
(-5.1 0.0540605 0.0146507)
(-5.1 0.0540605 0.0189556)
(-5.1 0.0540605 0.0239934)
(-5.1 0.0540605 0.0298872)
(-5.1 0.0540605 0.0367802)
(-5.1 0.0540605 0.0448389)
(-5.1 0.0540605 0.0542563)
(-5.1 0.0540605 0.0652562)
(-5.1 0.0540605 0.0780967)
(-5.1 0.0540605 0.0930757)
(-5.1 0.0540605 0.110535)
(-5.1 0.0540605 0.130868)
(-5.1 0.0540605 0.15452)
(-5.1 0.0540605 0.181999)
(-5.1 0.0540605 0.213878)
(-5.1 0.0540605 0.250798)
(-5.1 0.0540605 0.293473)
(-5.1 0.0540605 0.342689)
(-5.1 0.0540605 0.399299)
(-5.1 0.0540605 0.464218)
(-5.1 0.0540605 0.538412)
(-5.1 0.0540605 0.622871)
(-5.1 0.0540605 0.718587)
(-5.1 0.0540605 0.82651)
(-5.1 0.0540605 0.947507)
(-5.1 0.0540605 1.08229)
(-5.1 0.0540605 1.23138)
(-5.1 0.0540605 1.39499)
(-5.1 0.0540605 1.57299)
(-5.1 0.0540605 1.76485)
(-5.1 0.0540605 1.96956)
(-5.1 0.0540605 2.18565)
(-5.1 0.0540605 2.41117)
(-5.1 0.0540605 2.64377)
(-5.1 0.0540605 2.88076)
(-5.1 0.0540605 3.11924)
(-5.1 0.0540605 3.35623)
(-5.1 0.0540605 3.58883)
(-5.1 0.0540605 3.81435)
(-5.1 0.0540605 4.03044)
(-5.1 0.0540605 4.23515)
(-5.1 0.0540605 4.42701)
(-5.1 0.0540605 4.60501)
(-5.1 0.0540605 4.76862)
(-5.1 0.0540605 4.91771)
(-5.1 0.0540605 5.05249)
(-5.1 0.0540605 5.17349)
(-5.1 0.0540605 5.28141)
(-5.1 0.0540605 5.37713)
(-5.1 0.0540605 5.46159)
(-5.1 0.0540605 5.53578)
(-5.1 0.0540605 5.6007)
(-5.1 0.0540605 5.65731)
(-5.1 0.0540605 5.70653)
(-5.1 0.0540605 5.7492)
(-5.1 0.0540605 5.78612)
(-5.1 0.0540605 5.818)
(-5.1 0.0540605 5.84548)
(-5.1 0.0540605 5.86913)
(-5.1 0.0540605 5.88946)
(-5.1 0.0540605 5.90692)
(-5.1 0.0540605 5.9219)
(-5.1 0.0540605 5.93474)
(-5.1 0.0540605 5.94574)
(-5.1 0.0540605 5.95516)
(-5.1 0.0540605 5.96322)
(-5.1 0.0540605 5.97011)
(-5.1 0.0540605 5.97601)
(-5.1 0.0540605 5.98104)
(-5.1 0.0540605 5.98535)
(-5.1 0.0540605 5.98903)
(-5.1 0.0540605 5.99217)
(-5.1 0.0540605 5.99485)
(-5.1 0.0540605 5.99714)
(-5.1 0.0540605 5.9991)
(-5.1 0.0659479 0.000900901)
(-5.1 0.0659479 0.00285702)
(-5.1 0.0659479 0.00514809)
(-5.1 0.0659479 0.00783112)
(-5.1 0.0659479 0.0109727)
(-5.1 0.0659479 0.0146507)
(-5.1 0.0659479 0.0189556)
(-5.1 0.0659479 0.0239934)
(-5.1 0.0659479 0.0298872)
(-5.1 0.0659479 0.0367802)
(-5.1 0.0659479 0.0448389)
(-5.1 0.0659479 0.0542563)
(-5.1 0.0659479 0.0652562)
(-5.1 0.0659479 0.0780967)
(-5.1 0.0659479 0.0930757)
(-5.1 0.0659479 0.110535)
(-5.1 0.0659479 0.130868)
(-5.1 0.0659479 0.15452)
(-5.1 0.0659479 0.181999)
(-5.1 0.0659479 0.213878)
(-5.1 0.0659479 0.250798)
(-5.1 0.0659479 0.293473)
(-5.1 0.0659479 0.342689)
(-5.1 0.0659479 0.399299)
(-5.1 0.0659479 0.464218)
(-5.1 0.0659479 0.538412)
(-5.1 0.0659479 0.622871)
(-5.1 0.0659479 0.718587)
(-5.1 0.0659479 0.82651)
(-5.1 0.0659479 0.947507)
(-5.1 0.0659479 1.08229)
(-5.1 0.0659479 1.23138)
(-5.1 0.0659479 1.39499)
(-5.1 0.0659479 1.57299)
(-5.1 0.0659479 1.76485)
(-5.1 0.0659479 1.96956)
(-5.1 0.0659479 2.18565)
(-5.1 0.0659479 2.41117)
(-5.1 0.0659479 2.64377)
(-5.1 0.0659479 2.88076)
(-5.1 0.0659479 3.11924)
(-5.1 0.0659479 3.35623)
(-5.1 0.0659479 3.58883)
(-5.1 0.0659479 3.81435)
(-5.1 0.0659479 4.03044)
(-5.1 0.0659479 4.23515)
(-5.1 0.0659479 4.42701)
(-5.1 0.0659479 4.60501)
(-5.1 0.0659479 4.76862)
(-5.1 0.0659479 4.91771)
(-5.1 0.0659479 5.05249)
(-5.1 0.0659479 5.17349)
(-5.1 0.0659479 5.28141)
(-5.1 0.0659479 5.37713)
(-5.1 0.0659479 5.46159)
(-5.1 0.0659479 5.53578)
(-5.1 0.0659479 5.6007)
(-5.1 0.0659479 5.65731)
(-5.1 0.0659479 5.70653)
(-5.1 0.0659479 5.7492)
(-5.1 0.0659479 5.78612)
(-5.1 0.0659479 5.818)
(-5.1 0.0659479 5.84548)
(-5.1 0.0659479 5.86913)
(-5.1 0.0659479 5.88946)
(-5.1 0.0659479 5.90692)
(-5.1 0.0659479 5.9219)
(-5.1 0.0659479 5.93474)
(-5.1 0.0659479 5.94574)
(-5.1 0.0659479 5.95516)
(-5.1 0.0659479 5.96322)
(-5.1 0.0659479 5.97011)
(-5.1 0.0659479 5.97601)
(-5.1 0.0659479 5.98104)
(-5.1 0.0659479 5.98535)
(-5.1 0.0659479 5.98903)
(-5.1 0.0659479 5.99217)
(-5.1 0.0659479 5.99485)
(-5.1 0.0659479 5.99714)
(-5.1 0.0659479 5.9991)
(-5.1 0.0799219 0.000900901)
(-5.1 0.0799219 0.00285702)
(-5.1 0.0799219 0.00514809)
(-5.1 0.0799219 0.00783112)
(-5.1 0.0799219 0.0109727)
(-5.1 0.0799219 0.0146507)
(-5.1 0.0799219 0.0189556)
(-5.1 0.0799219 0.0239934)
(-5.1 0.0799219 0.0298872)
(-5.1 0.0799219 0.0367802)
(-5.1 0.0799219 0.0448389)
(-5.1 0.0799219 0.0542563)
(-5.1 0.0799219 0.0652562)
(-5.1 0.0799219 0.0780967)
(-5.1 0.0799219 0.0930757)
(-5.1 0.0799219 0.110535)
(-5.1 0.0799219 0.130868)
(-5.1 0.0799219 0.15452)
(-5.1 0.0799219 0.181999)
(-5.1 0.0799219 0.213878)
(-5.1 0.0799219 0.250798)
(-5.1 0.0799219 0.293473)
(-5.1 0.0799219 0.342689)
(-5.1 0.0799219 0.399299)
(-5.1 0.0799219 0.464218)
(-5.1 0.0799219 0.538412)
(-5.1 0.0799219 0.622871)
(-5.1 0.0799219 0.718587)
(-5.1 0.0799219 0.82651)
(-5.1 0.0799219 0.947507)
(-5.1 0.0799219 1.08229)
(-5.1 0.0799219 1.23138)
(-5.1 0.0799219 1.39499)
(-5.1 0.0799219 1.57299)
(-5.1 0.0799219 1.76485)
(-5.1 0.0799219 1.96956)
(-5.1 0.0799219 2.18565)
(-5.1 0.0799219 2.41117)
(-5.1 0.0799219 2.64377)
(-5.1 0.0799219 2.88076)
(-5.1 0.0799219 3.11924)
(-5.1 0.0799219 3.35623)
(-5.1 0.0799219 3.58883)
(-5.1 0.0799219 3.81435)
(-5.1 0.0799219 4.03044)
(-5.1 0.0799219 4.23515)
(-5.1 0.0799219 4.42701)
(-5.1 0.0799219 4.60501)
(-5.1 0.0799219 4.76862)
(-5.1 0.0799219 4.91771)
(-5.1 0.0799219 5.05249)
(-5.1 0.0799219 5.17349)
(-5.1 0.0799219 5.28141)
(-5.1 0.0799219 5.37713)
(-5.1 0.0799219 5.46159)
(-5.1 0.0799219 5.53578)
(-5.1 0.0799219 5.6007)
(-5.1 0.0799219 5.65731)
(-5.1 0.0799219 5.70653)
(-5.1 0.0799219 5.7492)
(-5.1 0.0799219 5.78612)
(-5.1 0.0799219 5.818)
(-5.1 0.0799219 5.84548)
(-5.1 0.0799219 5.86913)
(-5.1 0.0799219 5.88946)
(-5.1 0.0799219 5.90692)
(-5.1 0.0799219 5.9219)
(-5.1 0.0799219 5.93474)
(-5.1 0.0799219 5.94574)
(-5.1 0.0799219 5.95516)
(-5.1 0.0799219 5.96322)
(-5.1 0.0799219 5.97011)
(-5.1 0.0799219 5.97601)
(-5.1 0.0799219 5.98104)
(-5.1 0.0799219 5.98535)
(-5.1 0.0799219 5.98903)
(-5.1 0.0799219 5.99217)
(-5.1 0.0799219 5.99485)
(-5.1 0.0799219 5.99714)
(-5.1 0.0799219 5.9991)
(-5.1 0.0963083 0.000900901)
(-5.1 0.0963083 0.00285702)
(-5.1 0.0963083 0.00514809)
(-5.1 0.0963083 0.00783112)
(-5.1 0.0963083 0.0109727)
(-5.1 0.0963083 0.0146507)
(-5.1 0.0963083 0.0189556)
(-5.1 0.0963083 0.0239934)
(-5.1 0.0963083 0.0298872)
(-5.1 0.0963083 0.0367802)
(-5.1 0.0963083 0.0448389)
(-5.1 0.0963083 0.0542563)
(-5.1 0.0963083 0.0652562)
(-5.1 0.0963083 0.0780967)
(-5.1 0.0963083 0.0930757)
(-5.1 0.0963083 0.110535)
(-5.1 0.0963083 0.130868)
(-5.1 0.0963083 0.15452)
(-5.1 0.0963083 0.181999)
(-5.1 0.0963083 0.213878)
(-5.1 0.0963083 0.250798)
(-5.1 0.0963083 0.293473)
(-5.1 0.0963083 0.342689)
(-5.1 0.0963083 0.399299)
(-5.1 0.0963083 0.464218)
(-5.1 0.0963083 0.538412)
(-5.1 0.0963083 0.622871)
(-5.1 0.0963083 0.718587)
(-5.1 0.0963083 0.82651)
(-5.1 0.0963083 0.947507)
(-5.1 0.0963083 1.08229)
(-5.1 0.0963083 1.23138)
(-5.1 0.0963083 1.39499)
(-5.1 0.0963083 1.57299)
(-5.1 0.0963083 1.76485)
(-5.1 0.0963083 1.96956)
(-5.1 0.0963083 2.18565)
(-5.1 0.0963083 2.41117)
(-5.1 0.0963083 2.64377)
(-5.1 0.0963083 2.88076)
(-5.1 0.0963083 3.11924)
(-5.1 0.0963083 3.35623)
(-5.1 0.0963083 3.58883)
(-5.1 0.0963083 3.81435)
(-5.1 0.0963083 4.03044)
(-5.1 0.0963083 4.23515)
(-5.1 0.0963083 4.42701)
(-5.1 0.0963083 4.60501)
(-5.1 0.0963083 4.76862)
(-5.1 0.0963083 4.91771)
(-5.1 0.0963083 5.05249)
(-5.1 0.0963083 5.17349)
(-5.1 0.0963083 5.28141)
(-5.1 0.0963083 5.37713)
(-5.1 0.0963083 5.46159)
(-5.1 0.0963083 5.53578)
(-5.1 0.0963083 5.6007)
(-5.1 0.0963083 5.65731)
(-5.1 0.0963083 5.70653)
(-5.1 0.0963083 5.7492)
(-5.1 0.0963083 5.78612)
(-5.1 0.0963083 5.818)
(-5.1 0.0963083 5.84548)
(-5.1 0.0963083 5.86913)
(-5.1 0.0963083 5.88946)
(-5.1 0.0963083 5.90692)
(-5.1 0.0963083 5.9219)
(-5.1 0.0963083 5.93474)
(-5.1 0.0963083 5.94574)
(-5.1 0.0963083 5.95516)
(-5.1 0.0963083 5.96322)
(-5.1 0.0963083 5.97011)
(-5.1 0.0963083 5.97601)
(-5.1 0.0963083 5.98104)
(-5.1 0.0963083 5.98535)
(-5.1 0.0963083 5.98903)
(-5.1 0.0963083 5.99217)
(-5.1 0.0963083 5.99485)
(-5.1 0.0963083 5.99714)
(-5.1 0.0963083 5.9991)
(-5.1 0.115469 0.000900901)
(-5.1 0.115469 0.00285702)
(-5.1 0.115469 0.00514809)
(-5.1 0.115469 0.00783112)
(-5.1 0.115469 0.0109727)
(-5.1 0.115469 0.0146507)
(-5.1 0.115469 0.0189556)
(-5.1 0.115469 0.0239934)
(-5.1 0.115469 0.0298872)
(-5.1 0.115469 0.0367802)
(-5.1 0.115469 0.0448389)
(-5.1 0.115469 0.0542563)
(-5.1 0.115469 0.0652562)
(-5.1 0.115469 0.0780967)
(-5.1 0.115469 0.0930757)
(-5.1 0.115469 0.110535)
(-5.1 0.115469 0.130868)
(-5.1 0.115469 0.15452)
(-5.1 0.115469 0.181999)
(-5.1 0.115469 0.213878)
(-5.1 0.115469 0.250798)
(-5.1 0.115469 0.293473)
(-5.1 0.115469 0.342689)
(-5.1 0.115469 0.399299)
(-5.1 0.115469 0.464218)
(-5.1 0.115469 0.538412)
(-5.1 0.115469 0.622871)
(-5.1 0.115469 0.718587)
(-5.1 0.115469 0.82651)