/*--------------------------------*- C++ -*----------------------------------*\
| =========                 |                                                 |
| \\      /  F ield         | OpenFOAM: The Open Source CFD Toolbox           |
|  \\    /   O peration     | Version:  2212                                  |
|   \\  /    A nd           | Website:  www.openfoam.com                      |
|    \\/     M anipulation  |                                                 |
\*---------------------------------------------------------------------------*/
FoamFile
{
    version     2.0;
    format      ascii;
    arch        "LSB;label=32;scalar=64";
    class       volScalarField;
    location    "6000";
    object      k;
}
// * * * * * * * * * * * * * * * * * * * * * * * * * * * * * * * * * * * * * //

dimensions      [0 2 -2 0 0 0 0];

internalField   nonuniform List<scalar> 
4800
(
7.33809e-10
3.93942e-09
1.12101e-08
2.39771e-08
4.42585e-08
7.48047e-08
1.19282e-07
1.82512e-07
2.70725e-07
3.91715e-07
5.54778e-07
7.70584e-07
1.04809e-06
1.39058e-06
1.78864e-06
2.21492e-06
2.62875e-06
2.99391e-06
3.29906e-06
3.56316e-06
3.82052e-06
4.09598e-06
4.38759e-06
4.66436e-06
4.87995e-06
4.99046e-06
4.96927e-06
4.83035e-06
4.63526e-06
4.42897e-06
4.19294e-06
3.95881e-06
3.9054e-06
4.20736e-06
4.71981e-06
5.09224e-06
5.21176e-06
5.19374e-06
5.16723e-06
5.16646e-06
5.1718e-06
5.17791e-06
5.20385e-06
5.21896e-06
5.09712e-06
4.71916e-06
4.19861e-06
3.88957e-06
3.94617e-06
4.19154e-06
4.43726e-06
4.64719e-06
4.84237e-06
4.97827e-06
4.99402e-06
4.87745e-06
4.65652e-06
4.37591e-06
4.0826e-06
3.8074e-06
3.55173e-06
3.28989e-06
2.98697e-06
2.62372e-06
2.21138e-06
1.78619e-06
1.38892e-06
1.04697e-06
7.69823e-07
5.54263e-07
3.91365e-07
2.7049e-07
1.82357e-07
1.19182e-07
7.47423e-08
4.42221e-08
2.39577e-08
1.12013e-08
3.93642e-09
7.33258e-10
3.8643e-09
9.73654e-10
1.85129e-09
4.08629e-09
7.96683e-09
1.42885e-08
2.42235e-08
3.94235e-08
6.20659e-08
9.41578e-08
1.37015e-07
2.0001e-07
2.83843e-07
3.888e-07
5.10204e-07
6.3735e-07
7.56712e-07
8.5914e-07
9.45385e-07
1.02472e-06
1.10832e-06
1.2017e-06
1.30105e-06
1.39432e-06
1.46634e-06
1.50385e-06
1.49923e-06
1.46108e-06
1.40597e-06
1.34556e-06
1.2744e-06
1.21148e-06
1.20993e-06
1.31261e-06
1.47583e-06
1.59915e-06
1.64686e-06
1.64789e-06
1.64218e-06
1.64284e-06
1.64478e-06
1.64618e-06
1.6521e-06
1.65058e-06
1.60183e-06
1.47514e-06
1.30859e-06
1.20406e-06
1.20704e-06
1.27366e-06
1.34809e-06
1.40974e-06
1.46515e-06
1.50259e-06
1.50563e-06
1.46631e-06
1.39269e-06
1.29818e-06
1.1983e-06
1.10495e-06
1.02181e-06
9.43125e-07
8.57548e-07
7.55668e-07
6.36703e-07
5.09816e-07
3.88568e-07
2.83698e-07
1.99914e-07
1.36948e-07
9.40917e-08
6.20305e-08
3.94008e-08
2.42088e-08
1.42794e-08
7.96148e-09
4.08343e-09
1.84994e-09
9.72913e-10
3.86133e-09
1.1241e-08
1.86694e-09
2.04579e-09
5.93171e-09
1.51314e-08
3.32052e-08
6.58684e-08
1.21706e-07
2.12778e-07
3.53433e-07
5.58886e-07
8.6361e-07
1.28012e-06
1.80739e-06
2.41493e-06
3.03988e-06
3.61026e-06
4.08774e-06
4.49258e-06
4.88479e-06
5.32292e-06
5.82653e-06
6.36397e-06
6.86484e-06
7.24936e-06
7.45183e-06
7.43591e-06
7.26145e-06
7.00286e-06
6.71044e-06
6.35817e-06
6.0771e-06
6.12678e-06
6.6811e-06
7.52404e-06
8.1789e-06
8.4617e-06
8.49243e-06
8.47318e-06
8.47989e-06
8.49082e-06
8.49605e-06
8.51793e-06
8.4863e-06
8.19708e-06
7.51883e-06
6.65569e-06
6.09325e-06
6.0526e-06
6.35332e-06
6.72318e-06
7.02219e-06
7.28333e-06
7.45503e-06
7.46332e-06
7.25207e-06
6.85969e-06
6.35236e-06
5.81223e-06
5.3086e-06
4.87245e-06
4.48338e-06
4.08182e-06
3.60695e-06
3.03835e-06
2.41439e-06
1.80731e-06
1.28017e-06
8.63667e-07
5.58907e-07
3.53391e-07
2.12764e-07
1.21698e-07
6.58628e-08
3.32016e-08
1.51293e-08
5.93063e-09
2.04511e-09
1.86557e-09
1.12321e-08
2.44588e-08
4.16499e-09
5.89949e-09
2.07168e-08
5.87377e-08
1.3681e-07
2.80955e-07
5.30517e-07
9.41793e-07
1.5874e-06
2.55314e-06
3.96585e-06
5.89763e-06
8.34356e-06
1.11598e-05
1.40525e-05
1.66876e-05
1.88903e-05
2.0759e-05
2.25748e-05
2.46089e-05
2.69493e-05
2.94465e-05
3.17726e-05
3.3558e-05
3.44991e-05
3.44283e-05
3.36258e-05
3.24336e-05
3.10826e-05
2.9454e-05
2.81627e-05
2.84074e-05
3.09821e-05
3.48879e-05
3.79268e-05
3.92474e-05
3.93971e-05
3.93106e-05
3.93424e-05
3.93932e-05
3.94171e-05
3.95162e-05
3.93629e-05
3.80123e-05
3.48634e-05
3.08629e-05
2.82508e-05
2.80487e-05
2.94314e-05
3.11417e-05
3.2523e-05
3.37273e-05
3.45171e-05
3.45527e-05
3.35711e-05
3.17495e-05
2.93935e-05
2.68839e-05
2.45432e-05
2.25183e-05
2.07169e-05
1.88634e-05
1.66727e-05
1.40458e-05
1.11576e-05
8.34341e-06
5.89804e-06
3.96623e-06
2.55333e-06
1.58738e-06
9.41783e-07
5.30506e-07
2.80945e-07
1.36804e-07
5.87343e-08
2.07152e-08
5.89836e-09
4.16205e-09
2.4439e-08
4.59075e-08
8.24812e-09
1.51032e-08
5.82562e-08
1.75397e-07
4.27679e-07
9.05382e-07
1.7423e-06
3.13116e-06
5.32909e-06
8.64994e-06
1.34776e-05
2.0071e-05
2.84097e-05
3.79962e-05
4.78265e-05
5.6769e-05
6.42394e-05
7.05791e-05
7.67417e-05
8.3643e-05
9.1577e-05
0.000100034
0.000107906
0.000113947
0.000117137
0.000116909
0.000114209
0.000110186
0.000105619
0.000100113
9.57562e-05
9.66002e-05
0.000105318
0.000118519
0.000128791
0.000133268
0.000133786
0.000133499
0.000133607
0.000133779
0.00013386
0.00013419
0.00013366
0.000129081
0.000118435
0.000104912
9.60687e-05
9.53701e-05
0.000100037
0.000105819
0.000110488
0.000114551
0.000117209
0.000117318
0.000113992
0.000107828
9.98556e-05
9.13563e-05
8.34216e-05
7.65508e-05
7.0437e-05
6.41486e-05
5.67187e-05
4.78038e-05
3.79889e-05
2.84092e-05
2.00724e-05
1.34789e-05
8.65057e-06
5.32918e-06
3.13116e-06
1.74227e-06
9.05349e-07
4.27658e-07
1.75387e-07
5.82521e-08
1.51009e-08
8.24254e-09
4.58698e-08
7.89373e-08
1.50444e-08
3.35843e-08
1.36144e-07
4.25231e-07
1.07811e-06
2.36173e-06
4.66274e-06
8.52988e-06
1.47006e-05
2.40801e-05
3.7676e-05
5.61981e-05
7.9547e-05
0.000106281
0.000133576
0.000158317
0.000178945
0.000196447
0.000213461
0.000232488
0.000254308
0.000277505
0.000299052
0.000315576
0.000324328
0.00032378
0.000316499
0.000305581
0.000293119
0.00027807
0.000266214
0.000268626
0.000292528
0.000328552
0.000356552
0.000368825
0.000370317
0.000369568
0.000369865
0.000370333
0.000370552
0.000371423
0.000369903
0.000357348
0.000328315
0.000291406
0.000267163
0.000265155
0.000277863
0.000293667
0.000306405
0.000317431
0.000324598
0.000324821
0.0003157
0.000298844
0.000277022
0.000253709
0.000231886
0.00021294
0.000196059
0.000178696
0.000158179
0.000133514
0.000106261
7.95457e-05
5.62019e-05
3.76793e-05
2.40818e-05
1.47009e-05
8.52984e-06
4.6626e-06
2.36161e-06
1.07805e-06
4.25201e-07
1.36133e-07
3.35793e-08
1.50347e-08
7.88726e-08
1.2817e-07
2.59676e-08
6.78367e-08
2.83076e-07
9.02839e-07
2.35254e-06
5.31359e-06
1.07926e-05
2.01979e-05
3.53885e-05
5.86027e-05
9.21702e-05
0.00013765
0.000194529
0.000259028
0.000324231
0.000382841
0.000431469
0.000472686
0.000512738
0.000557392
0.000608327
0.000662164
0.000711938
0.000750046
0.000770361
0.000769474
0.000753222
0.000728519
0.000699964
0.000665318
0.000638272
0.000644379
0.000699817
0.000782437
0.00084648
0.000874879
0.000878666
0.00087712
0.000877823
0.000878896
0.000879383
0.000881227
0.000877388
0.000848321
0.00078185
0.000697178
0.000640972
0.000635817
0.000664831
0.000701219
0.000730404
0.000755355
0.00077135
0.000771494
0.000750345
0.000711484
0.000661077
0.000606969
0.000556019
0.000511546
0.000471796
0.0004309
0.000382526
0.000324089
0.000258983
0.000194527
0.000137659
9.21777e-05
5.86062e-05
3.53891e-05
2.01976e-05
1.07921e-05
5.31322e-06
2.35234e-06
9.02755e-07
2.83047e-07
6.78264e-08
2.59518e-08
1.28066e-07
1.99926e-07
4.30867e-08
1.27947e-07
5.43898e-07
1.75569e-06
4.6548e-06
1.07565e-05
2.24113e-05
4.29554e-05
7.6695e-05
0.000128567
0.000203261
0.000303341
0.000426506
0.000563552
0.000699507
0.000819873
0.000918895
0.00100269
0.00108408
0.00117432
0.00127625
0.00138291
0.00148072
0.00155543
0.00159578
0.00159549
0.00156567
0.00151911
0.00146392
0.00139628
0.00134443
0.00135842
0.00146806
0.00162813
0.00175162
0.00180756
0.00181621
0.00181383
0.00181527
0.00181735
0.00181824
0.00182126
0.00181255
0.00175522
0.00162681
0.00146272
0.00135165
0.00133958
0.00139528
0.00146633
0.00152274
0.00156979
0.00159915
0.00159799
0.00155607
0.00147993
0.00138088
0.00127368
0.00117169
0.00108178
0.00100097
0.000917798
0.000819268
0.000699238
0.00056347
0.000426507
0.000303361
0.000203275
0.000128573
7.66949e-05
4.29536e-05
2.24096e-05
1.07555e-05
4.65427e-06
1.75547e-06
5.43826e-07
1.27925e-07
4.3062e-08
1.99768e-07
3.02734e-07
6.92668e-08
2.28573e-07
9.84479e-07
3.20181e-06
8.58098e-06
2.01352e-05
4.27598e-05
8.36217e-05
0.00015189
0.000257397
0.000408098
0.000606163
0.000843392
0.00109929
0.0013457
0.00155898
0.00173252
0.0018793
0.00202181
0.00217829
0.00235231
0.0025316
0.00269416
0.00281814
0.00288673
0.00289066
0.00284704
0.00277538
0.00268639
0.00257546
0.00249321
0.002522
0.00270551
0.00296473
0.00316371
0.00325722
0.00327488
0.00327269
0.00327522
0.00327863
0.00327996
0.00328334
0.00326566
0.00316961
0.00296206
0.00269624
0.00251068
0.00248516
0.00257366
0.00269022
0.00278123
0.0028537
0.00289664
0.00289039
0.00281933
0.00269312
0.00252853
0.00234834
0.00217417
0.00201816
0.00187656
0.00173078
0.00155803
0.00134529
0.00109918
0.000843407
0.000606201
0.000408122
0.000257402
0.000151885
8.36154e-05
4.27551e-05
2.01325e-05
8.57968e-06
3.20129e-06
9.84309e-07
2.28525e-07
6.92289e-08
3.02507e-07
4.47746e-07
1.07676e-07
3.87916e-07
1.69084e-06
5.53305e-06
1.49386e-05
3.53986e-05
7.60949e-05
0.000150769
0.000276871
0.0004717
0.000745836
0.00109569
0.00149838
0.00191396
0.00229815
0.00262125
0.00288123
0.0031018
0.00331602
0.00354789
0.00380018
0.00405479
0.00428264
0.00445676
0.00455712
0.00457299
0.00452507
0.00443796
0.0043199
0.00416866
0.00406315
0.00411574
0.00437389
0.00472128
0.00498742
0.00512031
0.00515223
0.00515294
0.0051568
0.0051615
0.00516308
0.00516435
0.00513252
0.00499547
0.00471639
0.00436011
0.00409995
0.00405202
0.00416582
0.00432482
0.00444569
0.00453403
0.00458113
0.00456224
0.00445871
0.00428176
0.00405118
0.00379532
0.00354276
0.0033114
0.00309832
0.00287904
0.00262007
0.00229766
0.00191385
0.00149843
0.00109575
0.000745865
0.000471696
0.000276854
0.000150753
7.6084e-05
3.53926e-05
1.49358e-05
5.53191e-06
1.69045e-06
3.87808e-07
1.07615e-07
4.47438e-07
6.48493e-07
1.59257e-07
6.21059e-07
2.75372e-06
9.08418e-06
2.46838e-05
5.88605e-05
0.000127326
0.00025359
0.00046665
0.000792124
0.00123828
0.00178447
0.00238111
0.0029636
0.00347638
0.00389399
0.00422737
0.00451314
0.00479194
0.00508887
0.00540374
0.00571412
0.00598843
0.00619991
0.0063295
0.00636778
0.00633408
0.00625453
0.00612639
0.00595452
0.00584768
0.00593328
0.00624226
0.00663029
0.0069294
0.00709368
0.00714491
0.00715238
0.00715765
0.00716327
0.00716466
0.0071601
0.00710919
0.0069387
0.00662221
0.00622442
0.00591484
0.00583483
0.0059505
0.00613141
0.00626297
0.00634419
0.00637718
0.00633565
0.00620277
0.00598842
0.00571105
0.00539928
0.00508404
0.00478749
0.00450979
0.00422528
0.00389293
0.00347599
0.00296357
0.00238122
0.00178457
0.00123832
0.000792106
0.000466614
0.000253558
0.000127306
5.88499e-05
2.46789e-05
9.08221e-06
2.75305e-06
6.20875e-07
1.59172e-07
6.48106e-07
9.19764e-07
2.35212e-07
9.67922e-07
4.31584e-06
1.42697e-05
3.8855e-05
9.2817e-05
0.000200865
0.000399044
0.000729042
0.00122084
0.00186894
0.00262123
0.00339389
0.00410345
0.00469644
0.00516399
0.00553635
0.00586224
0.00618398
0.00652272
0.00687323
0.00721103
0.00750672
0.00773874
0.00789286
0.00796359
0.00796479
0.00791988
0.00780788
0.00764351
0.00756364
0.00769076
0.00801629
0.00838534
0.00867482
0.00885808
0.00893244
0.00895059
0.00895736
0.00896342
0.00896409
0.0089499
0.00887608
0.00868417
0.00837324
0.00799541
0.00767224
0.00755093
0.00763828
0.00781184
0.00792748
0.00797464
0.00797313
0.00789951
0.00774266
0.00750835
0.00720974
0.00687071
0.00651976
0.00618108
0.00586014
0.00553513
0.00516351
0.00469641
0.00410365
0.00339412
0.0026214
0.00186901
0.00122082
0.000728999
0.000399005
0.00020084
9.2804e-05
3.88493e-05
1.42675e-05
4.31518e-06
9.67763e-07
2.35135e-07
9.1933e-07
1.27036e-06
3.3625e-07
1.43618e-06
6.42067e-06
2.12413e-05
5.78471e-05
0.00013804
0.000297587
0.000586172
0.00105527
0.00172943
0.00257486
0.00349882
0.0043893
0.00515918
0.00577055
0.00623692
0.00660745
0.00694084
0.00727825
0.00763402
0.00799659
0.00834054
0.00864087
0.00888283
0.00905924
0.00917072
0.00922652
0.0092379
0.00916907
0.00904037
0.00901309
0.00919
0.00950336
0.00980516
0.0100485
0.0102385
0.0103383
0.0103703
0.0103789
0.010385
0.0103844
0.0103573
0.0102584
0.0100569
0.00978841
0.00948036
0.00917362
0.00900206
0.00903392
0.00917101
0.00924328
0.00923497
0.0091795
0.00906599
0.0088879
0.0086446
0.00834193
0.00799715
0.00763414
0.00727796
0.00694074
0.00660767
0.00623744
0.00577118
0.00515978
0.00438978
0.00349918
0.00257508
0.00172951
0.00105528
0.000586163
0.000297577
0.000138034
5.78444e-05
2.12403e-05
6.42037e-06
1.4361e-06
3.36188e-07
1.26997e-06
1.69177e-06
4.57589e-07
1.99797e-06
8.94471e-06
2.95913e-05
8.05214e-05
0.000191627
0.000410464
0.000798865
0.00141162
0.00225617
0.00326081
0.00429529
0.00523452
0.00600326
0.00658579
0.00701502
0.00735163
0.0076597
0.0079813
0.00832719
0.00868158
0.00901895
0.0093177
0.00957021
0.00977559
0.00993872
0.010066
0.0101552
0.0101514
0.0100854
0.0101294
0.0103643
0.0106477
0.0108521
0.0110221
0.0112074
0.0113329
0.0113813
0.0113923
0.0113983
0.0113955
0.0113533
0.0112287
0.011029
0.0108303
0.0106232
0.0103513
0.010121
0.0100778
0.0101506
0.0101576
0.0100722
0.009946
0.00978212
0.00957629
0.00932369
0.00902318
0.00868541
0.00833058
0.00798365
0.00766159
0.00735339
0.00701654
0.00658711
0.00600436
0.00523545
0.00429604
0.00326137
0.00225654
0.00141184
0.00079898
0.000410522
0.000191654
8.05327e-05
2.95954e-05
8.94599e-06
1.99824e-06
4.576e-07
1.69162e-06
2.14594e-06
5.84914e-07
2.57334e-06
1.15249e-05
3.81145e-05
0.000103585
0.000245691
0.000522557
0.00100466
0.00174372
0.00272354
0.00383504
0.00492142
0.0058577
0.00658809
0.00711902
0.00749603
0.00778237
0.00804286
0.00832204
0.00862947
0.0089538
0.00927289
0.00956641
0.00983076
0.0100708
0.0102972
0.0105125
0.0106981
0.0107845
0.010801
0.0109326
0.0112294
0.0114749
0.0115685
0.0116461
0.0118147
0.0119636
0.0120298
0.012044
0.0120498
0.012044
0.0119852
0.011837
0.0116511
0.0115416
0.0114495
0.0112205
0.0109272
0.0107923
0.0107806
0.0106969
0.0105157
0.0103024
0.0100768
0.00983744
0.0095738
0.0092791
0.00895972
0.00863468
0.00832568
0.00804576
0.00778481
0.007498
0.00712077
0.00658963
0.00585915
0.00492277
0.00383621
0.00272446
0.00174437
0.00100506
0.000522776
0.000245797
0.00010363
3.81315e-05
1.15301e-05
2.57448e-06
5.85101e-07
2.14636e-06
2.56724e-06
6.96693e-07
3.05189e-06
1.36633e-05
4.51687e-05
0.000122616
0.000289998
0.000613236
0.00116785
0.00199998
0.00307216
0.00424702
0.00535114
0.00626354
0.00694604
0.007424
0.00775279
0.00799234
0.00819879
0.00841598
0.00866495
0.00893652
0.00921469
0.00948437
0.0097488
0.0100195
0.0103118
0.0106232
0.0109223
0.0111218
0.0112415
0.0114729
0.0118287
0.0120355
0.0120181
0.0119915
0.0121302
0.0122978
0.0123818
0.0124
0.0124054
0.0123959
0.0123203
0.0121534
0.0119941
0.0119862
0.0120096
0.0118239
0.0114707
0.011232
0.0111149
0.0109175
0.0106229
0.0103145
0.0100245
0.00975496
0.0094914
0.00922089
0.00894204
0.00866925
0.00841853
0.00820045
0.0079937
0.00775394
0.00742531
0.00694758
0.00626533
0.0053531
0.004249
0.00307392
0.00200132
0.00116873
0.000613731
0.000290242
0.000122722
4.52081e-05
1.36752e-05
3.05455e-06
6.97197e-07
2.5687e-06
2.88719e-06
7.74511e-07
3.35377e-06
1.50036e-05
4.95874e-05
0.000134524
0.000317636
0.000669482
0.00126838
0.00215704
0.00328578
0.00450094
0.00561759
0.00651458
0.00716283
0.00759855
0.00788828
0.00809294
0.00825743
0.00841562
0.00858857
0.00877991
0.00898671
0.00920049
0.00943215
0.00970555
0.0100487
0.0104582
0.0108841
0.011217
0.0114594
0.0117949
0.0122042
0.0123753
0.0122569
0.0121213
0.012218
0.0123954
0.0124958
0.0125186
0.0125236
0.0125098
0.0124187
0.0122416
0.0121212
0.0122207
0.0123497
0.0122036
0.0117958
0.0114498
0.0112071
0.0108751
0.0104541
0.0100484
0.00970829
0.00943646
0.00920554
0.00899029
0.00878186
0.00858862
0.00841459
0.00825604
0.00809172
0.00788745
0.00759847
0.00716364
0.00651635
0.00562014
0.00450388
0.00328859
0.00215928
0.00126988
0.000670345
0.000318067
0.000134712
4.96573e-05
1.50249e-05
3.35852e-06
7.7547e-07
2.89025e-06
3.06596e-06
8.12068e-07
3.47092e-06
1.55156e-05
5.12778e-05
0.000139101
0.000328347
0.000691626
0.00130926
0.00222483
0.00338685
0.00463648
0.00578133
0.00669175
0.00733556
0.0077527
0.00801437
0.00818951
0.00832363
0.00843902
0.00854801
0.00865592
0.00876003
0.00887464
0.00902448
0.00924727
0.00959437
0.0100779
0.0106312
0.011115
0.0114926
0.0119319
0.0123866
0.0125276
0.0123246
0.0120829
0.0121264
0.0123028
0.0124162
0.012444
0.0124486
0.0124299
0.0123265
0.0121494
0.0120798
0.0122852
0.0125029
0.0123901
0.0119355
0.0114835
0.0111024
0.0106182
0.0100698
0.009591
0.00924781
0.00902639
0.00887616
0.00875915
0.00865242
0.00854281
0.00843279
0.00831741
0.008184
0.00801005
0.00775009
0.00733492
0.00669309
0.0057843
0.00464038
0.00339079
0.00222804
0.00131145
0.000692897
0.000328984
0.000139379
5.13816e-05
1.55473e-05
3.47799e-06
8.13575e-07
3.07109e-06
3.10536e-06
8.15466e-07
3.4543e-06
1.54338e-05
5.1014e-05
0.000138437
0.000327016
0.000689755
0.00130884
0.00223257
0.00341602
0.00470313
0.0058981
0.00686004
0.00754301
0.00797754
0.0082333
0.00838467
0.00848659
0.00856488
0.00862172
0.00865044
0.00865701
0.00864834
0.00866265
0.00877317
0.00905308
0.00955151
0.0102066
0.0108447
0.0113697
0.0119064
0.0123962
0.0125134
0.0122441
0.0119069
0.0118875
0.0120505
0.0121725
0.0122054
0.0122094
0.0121857
0.0120735
0.011909
0.0119006
0.0122035
0.0124897
0.0124011
0.0119119
0.0113618
0.0108301
0.0101906
0.00954044
0.00904765
0.00877177
0.00866216
0.00864638
0.00865204
0.00864211
0.00861062
0.00855282
0.00847459
0.00837361
0.00822418
0.00797126
0.00754012
0.00686048
0.00590121
0.00470776
0.00342089
0.00223661
0.00131158
0.000691341
0.00032781
0.000138783
5.11435e-05
1.54733e-05
3.46314e-06
8.17483e-07
3.11276e-06
3.03817e-06
7.97584e-07
3.3775e-06
1.50917e-05
4.98957e-05
0.000135484
0.000320457
0.000677567
0.00129087
0.0022147
0.00341448
0.0047436
0.00600509
0.00704889
0.00781422
0.00831366
0.00860241
0.00875155
0.00882234
0.00885105
0.0088509
0.00880664
0.00871196
0.00857727
0.00844091
0.00838622
0.00853002
0.00896054
0.00966064
0.0104324
0.0111008
0.0117326
0.012249
0.0123456
0.0120253
0.0116088
0.0115224
0.0116605
0.0117836
0.0118208
0.0118241
0.0117959
0.0116817
0.0115407
0.0115998
0.0119853
0.0123235
0.0122534
0.0117399
0.0110945
0.010417
0.00964303
0.00894832
0.00852419
0.00838437
0.00843965
0.00857348
0.00870404
0.00879401
0.00883489
0.00883347
0.00880427
0.00873438
0.00858804
0.00830368
0.00780916
0.00704837
0.00600802
0.00474852
0.00341977
0.00221916
0.00129394
0.00067936
0.000321358
0.000135878
5.00428e-05
1.51365e-05
3.38758e-06
8.00013e-07
3.04755e-06
2.91004e-06
7.6954e-07
3.28366e-06
1.46804e-05
4.85499e-05
0.000131919
0.000312497
0.000662636
0.00126838
0.00219103
0.00340784
0.00478215
0.00611883
0.00726008
0.00813309
0.00873678
0.00910743
0.00929659
0.00935922
0.00934108
0.00926394
0.00913026
0.00892762
0.00866301
0.00837152
0.00813689
0.00809864
0.0083861
0.00904617
0.00990074
0.0107002
0.0114098
0.0119389
0.0120211
0.0116683
0.011193
0.0110409
0.0111441
0.0112609
0.0113011
0.0113038
0.0112724
0.0111629
0.0110556
0.0111819
0.0116303
0.0120012
0.0119449
0.0114198
0.0106957
0.0098862
0.00902924
0.00837496
0.00809436
0.00813679
0.00837126
0.00865935
0.00891871
0.00911518
0.00924411
0.00931818
0.00933573
0.0092739
0.00908835
0.00872313
0.00812509
0.00725735
0.00612024
0.0047861
0.00341258
0.00219514
0.00127125
0.000664317
0.000313345
0.00013229
4.86887e-05
1.47227e-05
3.29324e-06
7.72046e-07
2.92043e-06
2.76525e-06
7.41184e-07
3.20655e-06
1.43483e-05
4.74637e-05
0.000129042
0.000306087
0.000650711
0.00125078
0.00217361
0.00340681
0.00482363
0.00623212
0.00747093
0.00845963
0.0091849
0.00966871
0.00994639
0.0100505
0.0100138
0.00986355
0.00961955
0.00929018
0.00888319
0.00843372
0.00802153
0.00778545
0.00788317
0.00841756
0.00927742
0.0101713
0.0109414
0.0114706
0.0115364
0.0111641
0.0106546
0.0104456
0.0105072
0.0106107
0.0106509
0.0106526
0.0106202
0.0105218
0.0104558
0.0106421
0.0111304
0.0115198
0.0114765
0.0109537
0.0101689
0.00926493
0.00840306
0.00787525
0.00778459
0.00802516
0.00843669
0.00888257
0.00928368
0.00960538
0.00984217
0.00998741
0.0100229
0.00992067
0.00964733
0.00916953
0.00845031
0.00746696
0.00623228
0.00482635
0.00341045
0.0021769
0.00125312
0.000652093
0.000306787
0.000129348
4.75786e-05
1.43834e-05
3.21455e-06
7.43452e-07
2.77522e-06
2.63203e-06
7.16493e-07
3.1476e-06
1.40974e-05
4.66417e-05
0.000126858
0.000301217
0.000641677
0.0012376
0.00216105
0.00340796
0.00486007
0.00632919
0.00765191
0.00874394
0.00958755
0.0101953
0.0105848
0.0107737
0.0107703
0.0105862
0.0102446
0.00977378
0.00920809
0.00859277
0.00800383
0.0075753
0.00746825
0.00781651
0.00859038
0.0095098
0.0103135
0.0108306
0.0108774
0.0104984
0.00998229
0.0097308
0.00974902
0.00983302
0.00987099
0.00987095
0.00983903
0.00975862
0.00973476
0.00996938
0.0104717
0.0108658
0.0108376
0.010327
0.00951068
0.00858108
0.00780613
0.00746524
0.00757921
0.00801199
0.00860137
0.00921339
0.00977253
0.0102346
0.0105675
0.010744
0.0107444
0.0105562
0.0101703
0.00956703
0.00872869
0.0076418
0.00632353
0.00485774
0.00340766
0.00216161
0.00123826
0.000642152
0.000301479
0.000126978
4.66875e-05
1.41116e-05
3.15097e-06
7.17904e-07
2.63959e-06
2.51842e-06
6.96068e-07
3.1029e-06
1.39091e-05
4.60255e-05
0.000125223
0.000297581
0.00063499
0.00122805
0.00215267
0.00341119
0.00489181
0.0064099
0.00780202
0.00897989
0.00992032
0.0106326
0.0111286
0.0114104
0.0114749
0.0113096
0.0109152
0.0103263
0.00960018
0.00881144
0.00804958
0.00743192
0.00712851
0.00726047
0.0078655
0.0087237
0.00951333
0.00999873
0.0100281
0.00965879
0.00916489
0.00889125
0.00886903
0.00892936
0.00896121
0.00895898
0.00892971
0.00887347
0.0088904
0.00915249
0.00963972
0.0100228
0.010009
0.00952703
0.00872699
0.00786002
0.00725462
0.0071313
0.00744206
0.00806442
0.00882809
0.00961398
0.0103334
0.0109127
0.0112969
0.0114532
0.0113838
0.0110999
0.0106046
0.00989503
0.00895876
0.00778515
0.00639712
0.0048828
0.00340531
0.00214917
0.00122617
0.000634066
0.000297166
0.000125053
4.59641e-05
1.38908e-05
3.09906e-06
6.96023e-07
2.52133e-06
2.43441e-06
6.84669e-07
3.10267e-06
1.39225e-05
4.60803e-05
0.000125414
0.000298239
0.000637171
0.00123456
0.00216946
0.00344815
0.00496183
0.00652555
0.00797481
0.00921734
0.0102253
0.0110043
0.0115662
0.0119125
0.0120324
0.0119043
0.0115053
0.010851
0.0100012
0.00905354
0.00812305
0.00732757
0.00683116
0.00674809
0.00712961
0.0078348
0.00854639
0.00897005
0.00898617
0.00865006
0.00820688
0.00793491
0.00787721
0.00791016
0.0079332
0.00792878
0.00790617
0.0078763
0.00792987
0.00819582
0.00863808
0.00898732
0.00898241
0.00855973
0.0078395
0.00712708
0.00674605
0.00683837
0.0073435
0.00814502
0.00907975
0.0100249
0.010869
0.011513
0.0118997
0.0120167
0.0118889
0.0115371
0.0109723
0.0101928
0.0091859
0.00794567
0.00650011
0.0049412
0.00343291
0.0021594
0.00122863
0.000634048
0.000296762
0.000124791
4.58511e-05
1.38534e-05
3.08753e-06
6.82301e-07
2.42972e-06
2.44374e-06
7.01284e-07
3.23735e-06
1.45446e-05
4.8152e-05
0.000131076
0.000311722
0.00066584
0.0012892
0.00226227
0.00358775
0.00514888
0.00675415
0.00823591
0.00950283
0.0105281
0.0113183
0.0118888
0.0122451
0.0123801
0.0122731
0.011894
0.0112362
0.0103352
0.00927649
0.00819904
0.00724218
0.00655354
0.00626878
0.00641032
0.00689955
0.00745846
0.00778977
0.00779994
0.00752135
0.0071518
0.00690199
0.00681853
0.00682344
0.00683439
0.00682942
0.00681625
0.00681553
0.00689526
0.00714291
0.00751439
0.00780358
0.00780221
0.00747075
0.00690445
0.00640983
0.00626895
0.00656225
0.00725924
0.00822505
0.00930903
0.0103662
0.0112649
0.0119146
0.012282
0.0123779
0.0122336
0.0118696
0.0112931
0.0104978
0.00946908
0.00820044
0.0067192
0.00511726
0.0035622
0.0022442
0.00127805
0.000659784
0.000308808
0.000129834
4.76939e-05
1.44062e-05
3.20675e-06
6.95525e-07
2.42709e-06
2.65315e-06
7.71639e-07
3.60456e-06
1.62056e-05
5.36463e-05
0.000145942
0.000346484
0.000737438
0.00141901
0.00246732
0.00386716
0.00547799
0.0070959
0.00855695
0.00978145
0.0107551
0.0114933
0.0120182
0.0123427
0.0124659
0.0123729
0.0120308
0.0114147
0.0105336
0.00943816
0.00825657
0.00715629
0.00629378
0.00581904
0.00574244
0.00600379
0.00639363
0.00662808
0.00663289
0.00641467
0.00611692
0.0058988
0.00580835
0.00579476
0.00579622
0.00579244
0.00578975
0.00580649
0.00589461
0.00611053
0.00640926
0.00663443
0.00663416
0.00640108
0.00600629
0.00574306
0.00581971
0.00630223
0.0071751
0.00828351
0.00947216
0.0105693
0.0114508
0.0120623
0.0123956
0.0124815
0.0123523
0.0120217
0.0114888
0.0107428
0.00976154
0.00853052
0.00706509
0.00544651
0.0038393
0.00244621
0.00140534
0.000729772
0.000342723
0.000144323
5.30457e-05
1.60236e-05
3.56406e-06
7.63149e-07
2.62471e-06
3.03586e-06
8.79403e-07
4.09302e-06
1.83948e-05
6.08622e-05
0.000165348
0.000391316
0.000827783
0.0015772
0.00270479
0.00416824
0.0057982
0.0073811
0.00876466
0.00988996
0.0107624
0.0114127
0.0118717
0.0121573
0.0122756
0.0122153
0.0119428
0.0114144
0.0105992
0.00952232
0.0082894
0.00707906
0.00607167
0.00542261
0.00517246
0.00523557
0.00547565
0.0056381
0.00563893
0.00546405
0.00522002
0.00503172
0.00494397
0.00492244
0.00491856
0.0049172
0.00492176
0.00494745
0.00503304
0.00521683
0.00545912
0.00563938
0.00564001
0.00547974
0.00523654
0.00517335
0.00542342
0.00607827
0.00709015
0.00830821
0.00955033
0.010633
0.0114486
0.0119777
0.0122469
0.0123053
0.0121843
0.0118943
0.0114297
0.0107718
0.00989041
0.00875666
0.00736623
0.00577958
0.00414969
0.00268963
0.00156687
0.000821793
0.000388316
0.000164042
6.03756e-05
1.8247e-05
4.05996e-06
8.71892e-07
3.00836e-06
3.38498e-06
9.69629e-07
4.46811e-06
2.00657e-05
6.63567e-05
0.000180054
0.000424935
0.000894218
0.00168984
0.00286567
0.00435703
0.00597429
0.00749977
0.00879224
0.00981052
0.0105777
0.011139
0.0115366
0.0117987
0.0119334
0.0119242
0.0117377
0.0113079
0.0105815
0.00954713
0.00829756
0.00701441
0.00590422
0.00513009
0.00474926
0.00467579
0.00478605
0.00488452
0.00488037
0.00474142
0.00454265
0.00437772
0.00428844
0.00425707
0.00424823
0.00424858
0.00426182
0.00430003
0.0043869
0.00454439
0.00473876
0.00488135
0.00488491
0.00478694
0.00467517
0.00474827
0.0051281
0.00590978
0.00702289
0.00831228
0.00956808
0.0106026
0.0113341
0.0117627
0.0119492
0.0119581
0.011822
0.0115565
0.0111537
0.0105869
0.00981391
0.00879038
0.00749382
0.00596592
0.00434819
0.00285818
0.00168461
0.000891132
0.000423373
0.00017937
6.61016e-05
1.99881e-05
4.45072e-06
9.65523e-07
3.36934e-06
3.55839e-06
1.01145e-06
4.62848e-06
2.07761e-05
6.86891e-05
0.000186274
0.000439032
0.000921596
0.00173486
0.00292669
0.00442202
0.00602263
0.00750934
0.00874552
0.00969782
0.0103991
0.010905
0.0112665
0.0115168
0.0116673
0.0117028
0.0115775
0.0112183
0.0105516
0.00955104
0.00829863
0.00698224
0.00581986
0.00497616
0.0045239
0.00438219
0.00441744
0.00447421
0.00446484
0.00434928
0.00417802
0.00402653
0.00393378
0.00389391
0.00388105
0.00388297
0.00390428
0.00395443
0.00404401
0.00418644
0.00435102
0.00446784
0.00447589
0.00441858
0.00438022
0.00452049
0.00497156
0.00581843
0.0069819
0.00830249
0.00955734
0.0105549
0.0112236
0.0115826
0.0117083
0.011674
0.0115235
0.011272
0.0109091
0.0104015
0.00969857
0.00874474
0.00750738
0.00602002
0.00441933
0.00292443
0.00173328
0.000920662
0.000438558
0.000186066
6.86115e-05
2.07525e-05
4.62318e-06
1.01023e-06
3.55386e-06
3.54906e-06
1.00915e-06
4.61944e-06
2.07361e-05
6.85579e-05
0.000185923
0.000438231
0.000920009
0.00173213
0.00292263
0.00441682
0.0060168
0.0075035
0.00874024
0.00969349
0.0103959
0.010903
0.0112655
0.0115173
0.0116698
0.0117059
0.0115825
0.0112266
0.0105606
0.00956045
0.00830381
0.00698441
0.00582286
0.00497683
0.00452331
0.00438204
0.00441725
0.00447266
0.00446286
0.00434598
0.00417434
0.00402274
0.00392915
0.00388871
0.0038771
0.00387923
0.00390317
0.00395555
0.00404616
0.00418955
0.00435469
0.00447062
0.0044791
0.00441995
0.00438165
0.00452076
0.00496976
0.00581266
0.00697581
0.00829596
0.00954933
0.0105454
0.0112104
0.0115667
0.0116891
0.0116519
0.0115008
0.011251
0.0108906
0.0103864
0.00968698
0.00873644
0.00750191
0.00601677
0.00441767
0.00292373
0.00173304
0.000920594
0.000438541
0.000186062
6.86102e-05
2.07521e-05
4.6231e-06
1.01032e-06
3.55468e-06
3.35488e-06
9.61629e-07
4.43402e-06
1.99139e-05
6.5858e-05
0.000178718
0.000421868
0.00088808
0.00167913
0.00284946
0.0043358
0.00594998
0.00747482
0.00876883
0.00979013
0.010561
0.0111265
0.0115292
0.0117961
0.0119355
0.0119341
0.0117517
0.0113296
0.0106042
0.00957106
0.00831443
0.00702804
0.00591483
0.00513179
0.00475116
0.00467663
0.00478476
0.00488161
0.00487581
0.00473299
0.00453281
0.00436762
0.00427672
0.00424354
0.00423772
0.00423968
0.00425944
0.00430522
0.00439489
0.00455353
0.00474861
0.00488767
0.0048915
0.00479087
0.00467611
0.00474651
0.00512374
0.00589946
0.00701114
0.00829955
0.0095505
0.0105802
0.0113047
0.011725
0.0119037
0.011906
0.0117673
0.0115033
0.0111054
0.010546
0.009782
0.00876773
0.00747963
0.00595861
0.00434566
0.00285816
0.00168537
0.000891818
0.00042378
0.00017956
6.61736e-05
2.00101e-05
4.45574e-06
9.67196e-07
3.3776e-06
2.99019e-06
8.66362e-07
4.03341e-06
1.81281e-05
5.99846e-05
0.000162991
0.000385872
0.00081678
0.00155774
0.0026749
0.00412859
0.00575242
0.00733406
0.00872062
0.00985196
0.010732
0.0113904
0.0118574
0.0121519
0.0122786
0.0122268
0.0119672
0.0114472
0.0106381
0.00955951
0.00831704
0.00709948
0.00608372
0.00542841
0.00517468
0.00523671
0.00547635
0.00563744
0.00563361
0.00545209
0.00520572
0.00501729
0.00492791
0.00490476
0.0049033
0.00490486
0.00491867
0.00495486
0.00504526
0.00523034
0.00547354
0.00565002
0.0056488
0.0054829
0.00523589
0.00516901
0.0054189
0.00606951
0.00707829
0.0082937