/*--------------------------------*- C++ -*----------------------------------*\
| =========                 |                                                 |
| \\      /  F ield         | OpenFOAM: The Open Source CFD Toolbox           |
|  \\    /   O peration     | Version:  2212                                  |
|   \\  /    A nd           | Website:  www.openfoam.com                      |
|    \\/     M anipulation  |                                                 |
\*---------------------------------------------------------------------------*/
FoamFile
{
    version     2.0;
    format      ascii;
    arch        "LSB;label=32;scalar=64";
    class       volScalarField;
    location    "6000";
    object      nut;
}
// * * * * * * * * * * * * * * * * * * * * * * * * * * * * * * * * * * * * * //

dimensions      [0 2 -1 0 0 0 0];

internalField   nonuniform List<scalar> 
4800
(
4.64428e-14
3.07195e-13
8.7416e-13
1.86973e-12
3.45126e-12
5.83325e-12
9.30159e-12
1.42323e-11
2.11111e-11
3.05458e-11
4.32614e-11
6.00898e-11
8.17299e-11
1.08437e-10
1.39477e-10
1.72719e-10
2.04989e-10
2.33463e-10
2.57259e-10
2.77853e-10
2.97922e-10
3.19402e-10
3.42141e-10
3.63724e-10
3.80535e-10
3.89152e-10
3.875e-10
3.76667e-10
3.61454e-10
3.45368e-10
3.26963e-10
3.08706e-10
3.04541e-10
3.28087e-10
3.68048e-10
3.97089e-10
4.06409e-10
4.05004e-10
4.02937e-10
4.02877e-10
4.03293e-10
4.0377e-10
4.05792e-10
4.0697e-10
3.9747e-10
3.67996e-10
3.27404e-10
3.03306e-10
3.0772e-10
3.26853e-10
3.46014e-10
3.62384e-10
3.77605e-10
3.88202e-10
3.8943e-10
3.8034e-10
3.63112e-10
3.4123e-10
3.18358e-10
2.96899e-10
2.76962e-10
2.56544e-10
2.32923e-10
2.04596e-10
1.72442e-10
1.39286e-10
1.08307e-10
8.16422e-11
6.00306e-11
4.32213e-11
3.05185e-11
2.10928e-11
1.42201e-11
9.29374e-12
5.82838e-12
3.44842e-12
1.86822e-12
8.73472e-13
3.06961e-13
4.6408e-14
2.44572e-13
3.33478e-13
9.56412e-13
2.20085e-12
4.30628e-12
7.72601e-12
1.30972e-11
2.13071e-11
3.34818e-11
5.01799e-11
7.09012e-11
1.03477e-10
1.46847e-10
2.01143e-10
2.63944e-10
3.29712e-10
3.9145e-10
4.44424e-10
4.89027e-10
5.30056e-10
5.73288e-10
6.21579e-10
6.72956e-10
7.21185e-10
7.58425e-10
7.77824e-10
7.75434e-10
7.55704e-10
7.27211e-10
6.95969e-10
6.59173e-10
6.26639e-10
6.25837e-10
6.78937e-10
7.63338e-10
8.27106e-10
8.51774e-10
8.52307e-10
8.49357e-10
8.49695e-10
8.50699e-10
8.51425e-10
8.54487e-10
8.53698e-10
8.28494e-10
7.62985e-10
6.76861e-10
6.22803e-10
6.24343e-10
6.58789e-10
6.97278e-10
7.29158e-10
7.57809e-10
7.7717e-10
7.7874e-10
7.58411e-10
7.20344e-10
6.71474e-10
6.19822e-10
5.71548e-10
5.28548e-10
4.87858e-10
4.43601e-10
3.9091e-10
3.29378e-10
2.63744e-10
2.01023e-10
1.46772e-10
1.03428e-10
7.08661e-11
5.01349e-11
3.34619e-11
2.12948e-11
1.30892e-11
7.72107e-12
4.30338e-12
2.19931e-12
9.55717e-13
3.33224e-13
2.44384e-13
7.11441e-13
7.98939e-13
2.42393e-12
1.01099e-11
2.79056e-11
6.20984e-11
1.2348e-10
2.28192e-10
3.98428e-10
6.56685e-10
1.02003e-09
1.57521e-09
2.33441e-09
3.29512e-09
4.40144e-09
5.53865e-09
6.57567e-09
7.44305e-09
8.17804e-09
8.89001e-09
9.68535e-09
1.05994e-08
1.15745e-08
1.24828e-08
1.31797e-08
1.35466e-08
1.35177e-08
1.32018e-08
1.27335e-08
1.22038e-08
1.15652e-08
1.10559e-08
1.11467e-08
1.21525e-08
1.36805e-08
1.48669e-08
1.53794e-08
1.54354e-08
1.54007e-08
1.5413e-08
1.54327e-08
1.54422e-08
1.54817e-08
1.54241e-08
1.48999e-08
1.3671e-08
1.21063e-08
1.10858e-08
1.10114e-08
1.15564e-08
1.22269e-08
1.27686e-08
1.32415e-08
1.35524e-08
1.35674e-08
1.31847e-08
1.24735e-08
1.15535e-08
1.05735e-08
9.65937e-09
8.86762e-09
8.16134e-09
7.43231e-09
6.56966e-09
5.53587e-09
4.40047e-09
3.29497e-09
2.33451e-09
1.57531e-09
1.02007e-09
6.56526e-10
3.98396e-10
2.28177e-10
1.23469e-10
6.20917e-11
2.79018e-11
1.01081e-11
2.42312e-12
7.98354e-13
7.10878e-13
1.548e-12
1.80874e-12
8.48001e-12
6.18207e-11
2.43126e-10
6.27848e-10
1.32401e-09
2.51513e-09
4.46524e-09
7.48542e-09
1.18972e-08
1.84475e-08
2.73959e-08
3.86942e-08
5.16561e-08
6.49105e-08
7.69234e-08
8.69154e-08
9.53639e-08
1.03566e-07
1.12754e-07
1.23314e-07
1.34554e-07
1.44993e-07
1.52983e-07
1.57187e-07
1.56874e-07
1.53312e-07
1.48009e-07
1.41984e-07
1.34694e-07
1.2893e-07
1.30082e-07
1.41673e-07
1.59152e-07
1.72711e-07
1.78621e-07
1.79314e-07
1.78942e-07
1.79088e-07
1.79314e-07
1.79418e-07
1.79848e-07
1.7914e-07
1.73096e-07
1.5904e-07
1.41134e-07
1.29375e-07
1.28415e-07
1.34592e-07
1.42248e-07
1.4841e-07
1.53766e-07
1.57272e-07
1.57429e-07
1.53044e-07
1.44893e-07
1.34319e-07
1.23022e-07
1.1246e-07
1.03312e-07
9.51747e-08
8.67944e-08
7.68566e-08
6.48807e-08
5.16468e-08
3.8694e-08
2.7398e-08
1.84493e-08
1.18981e-08
7.48471e-09
4.46513e-09
2.51508e-09
1.32397e-09
6.27819e-10
2.43112e-10
6.18161e-11
8.47839e-12
1.80746e-12
1.54675e-12
2.90549e-12
3.5855e-12
2.23368e-11
2.05926e-10
1.1013e-09
3.61998e-09
8.61999e-09
1.72196e-08
3.12188e-08
5.2978e-08
8.51701e-08
1.3201e-07
1.95462e-07
2.74754e-07
3.64559e-07
4.55037e-07
5.35759e-07
6.01956e-07
6.57451e-07
7.11244e-07
7.7149e-07
8.40469e-07
9.13368e-07
9.80512e-07
1.03155e-06
1.05835e-06
1.05657e-06
1.03452e-06
1.00141e-06
9.63374e-07
9.16929e-07
8.80619e-07
8.89217e-07
9.64366e-07
1.07567e-06
1.16143e-06
1.19929e-06
1.20427e-06
1.20221e-06
1.2032e-06
1.20463e-06
1.20524e-06
1.2077e-06
1.20266e-06
1.16394e-06
1.07492e-06
9.6081e-07
8.84586e-07
8.77265e-07
9.16249e-07
9.65056e-07
1.00395e-06
1.03741e-06
1.05912e-06
1.05993e-06
1.032e-06
9.79937e-07
9.1192e-07
8.38636e-07
7.69624e-07
7.09618e-07
6.56235e-07
6.01181e-07
5.35336e-07
4.54854e-07
3.64509e-07
2.74761e-07
1.95482e-07
1.32026e-07
8.51774e-08
5.29768e-08
3.12186e-08
1.72193e-08
8.61972e-09
3.61981e-09
1.10123e-09
2.05912e-10
2.23333e-11
3.58307e-12
2.90311e-12
4.99595e-12
6.54027e-12
4.98631e-11
4.99434e-10
3.10082e-09
1.26972e-08
3.65745e-08
8.15756e-08
1.55521e-07
2.69494e-07
4.36917e-07
6.742e-07
9.88294e-07
1.3704e-06
1.79002e-06
2.19889e-06
2.55162e-06
2.83258e-06
3.0643e-06
3.28871e-06
3.54049e-06
3.82717e-06
4.12648e-06
4.39828e-06
4.60252e-06
4.70959e-06
4.70435e-06
4.62219e-06
4.49662e-06
4.34922e-06
4.16567e-06
4.02651e-06
4.07217e-06
4.38005e-06
4.82027e-06
5.15623e-06
5.30881e-06
5.33332e-06
5.3277e-06
5.33213e-06
5.33784e-06
5.33977e-06
5.34723e-06
5.32281e-06
5.16662e-06
4.81682e-06
4.36498e-06
4.05291e-06
4.01265e-06
4.16268e-06
4.35581e-06
4.50664e-06
4.63373e-06
4.7147e-06
4.71619e-06
4.6048e-06
4.39657e-06
4.12119e-06
3.82021e-06
3.53324e-06
3.2823e-06
3.0595e-06
2.82956e-06
2.55004e-06
2.1983e-06
1.78996e-06
1.37054e-06
9.88451e-07
6.74309e-07
4.36969e-07
2.69504e-07
1.55523e-07
8.15746e-08
3.6573e-08
1.26964e-08
3.1006e-09
4.99393e-10
4.98558e-11
6.53606e-12
4.99185e-12
8.11188e-12
1.12879e-11
1.0077e-10
1.04596e-09
6.8602e-09
3.16024e-08
1.07468e-07
2.7798e-07
5.79857e-07
1.04579e-06
1.71338e-06
2.62069e-06
3.77165e-06
5.11039e-06
6.51408e-06
7.82007e-06
8.89809e-06
9.72556e-06
1.03959e-05
1.1048e-05
1.17849e-05
1.26206e-05
1.3482e-05
1.42524e-05
1.48245e-05
1.51247e-05
1.51185e-05
1.4914e-05
1.45937e-05
1.42054e-05
1.37078e-05
1.33522e-05
1.35301e-05
1.44125e-05
1.56134e-05
1.65238e-05
1.69567e-05
1.70442e-05
1.70392e-05
1.70537e-05
1.70696e-05
1.70731e-05
1.70843e-05
1.69981e-05
1.65542e-05
1.56017e-05
1.43672e-05
1.34743e-05
1.33122e-05
1.36982e-05
1.42229e-05
1.46209e-05
1.49461e-05
1.51482e-05
1.51445e-05
1.48329e-05
1.42501e-05
1.34695e-05
1.26032e-05
1.17661e-05
1.10311e-05
1.03833e-05
9.71805e-06
8.89468e-06
7.81942e-06
6.51481e-06
5.11152e-06
3.77261e-06
2.62131e-06
1.71369e-06
1.04589e-06
5.79879e-07
2.77976e-07
1.07462e-07
3.15998e-08
6.85955e-09
1.04585e-09
1.00754e-10
1.1281e-11
8.10531e-12
1.26533e-11
1.87233e-11
1.90031e-10
2.01186e-09
1.34646e-08
6.50673e-08
2.42419e-07
7.05604e-07
1.62658e-06
3.10569e-06
5.18917e-06
7.89804e-06
1.11724e-05
1.48027e-05
1.84281e-05
2.16475e-05
2.41859e-05
2.60569e-05
2.7543e-05
2.8999e-05
3.0668e-05
3.25646e-05
3.45039e-05
3.62164e-05
3.74762e-05
3.81438e-05
3.81612e-05
3.77871e-05
3.71794e-05
3.64045e-05
3.53687e-05
3.46989e-05
3.52336e-05
3.72102e-05
3.97435e-05
4.16545e-05
4.26222e-05
4.28678e-05
4.28869e-05
4.29246e-05
4.29595e-05
4.29623e-05
4.29596e-05
4.27194e-05
4.17241e-05
3.97109e-05
3.71032e-05
3.5109e-05
3.46092e-05
3.53435e-05
3.64396e-05
3.72367e-05
3.78571e-05
3.82287e-05
3.81909e-05
3.75004e-05
3.62184e-05
3.44832e-05
3.25325e-05
3.06321e-05
2.89663e-05
2.75192e-05
2.60444e-05
2.41823e-05
2.16498e-05
1.84331e-05
1.48078e-05
1.11764e-05
7.90058e-06
5.19044e-06
3.10614e-06
1.62666e-06
7.05583e-07
2.42398e-07
6.50598e-08
1.34629e-08
2.01159e-09
1.89998e-10
1.87125e-11
1.26434e-11
1.916e-11
3.00581e-11
3.39155e-10
3.63871e-09
2.4563e-08
1.20762e-07
4.66403e-07
1.44018e-06
3.55174e-06
7.15164e-06
1.22994e-05
1.88501e-05
2.64964e-05
3.46531e-05
4.25192e-05
4.92615e-05
5.43932e-05
5.80521e-05
6.09016e-05
6.3706e-05
6.69455e-05
7.06272e-05
7.43695e-05
7.76476e-05
8.00544e-05
8.13673e-05
8.15149e-05
8.10082e-05
8.01096e-05
7.88455e-05
7.70425e-05
7.60419e-05
7.73709e-05
8.1176e-05
8.5691e-05
8.90709e-05
9.0929e-05
9.15188e-05
9.16267e-05
9.17109e-05
9.1777e-05
9.17716e-05
9.17015e-05
9.11262e-05
8.92055e-05
8.56102e-05
8.09589e-05
7.71366e-05
7.58723e-05
7.69857e-05
7.89025e-05
8.0211e-05
8.11387e-05
8.16466e-05
8.14637e-05
8.01118e-05
7.76663e-05
7.43455e-05
7.05815e-05
6.68914e-05
6.36561e-05
6.08679e-05
5.80389e-05
5.43958e-05
4.92742e-05
4.25353e-05
3.46682e-05
2.65077e-05
1.88571e-05
1.23027e-05
7.15276e-06
3.55188e-06
1.44009e-06
4.66344e-07
1.20743e-07
2.45588e-08
3.63805e-09
3.39081e-10
3.00413e-11
1.91457e-11
2.83378e-11
4.63595e-11
5.72625e-10
6.22407e-09
4.22619e-08
2.08964e-07
8.138e-07
2.55293e-06
6.46729e-06
1.34458e-05
2.37076e-05
3.68704e-05
5.2129e-05
6.82078e-05
8.34741e-05
9.6359e-05
0.000106019
0.000112789
0.000117946
0.000122914
0.000128559
0.000134916
0.00014134
0.000146954
0.000151122
0.000153546
0.000154196
0.000153916
0.000153096
0.000151512
0.00014891
0.00014785
0.000150752
0.000157239
0.000164094
0.000169123
0.000172257
0.000173536
0.000173887
0.000174056
0.000174167
0.000174135
0.000173863
0.000172615
0.000169345
0.000163908
0.000156847
0.000150374
0.000147574
0.000148796
0.000151584
0.000153248
0.000154126
0.00015442
0.00015372
0.00015124
0.000147016
0.000141332
0.000134872
0.000128501
0.000122859
0.000117916
0.000112788
0.00010604
9.63923e-05
8.35099e-05
6.82392e-05
5.21517e-05
3.6884e-05
2.37138e-05
1.34476e-05
6.46733e-06
2.55268e-06
8.13663e-07
2.0892e-07
4.22519e-08
6.22242e-09
5.72439e-10
4.63302e-11
2.83184e-11
4.10432e-11
6.6494e-11
8.99466e-10
1.00044e-08
6.86087e-08
3.40298e-07
1.32042e-06
4.11387e-06
1.04217e-05
2.18834e-05
3.91751e-05
6.18427e-05
8.83708e-05
0.000116497
0.00014324
0.000165844
0.000182844
0.000194782
0.000203781
0.000212227
0.000221418
0.000231535
0.000241701
0.000250652
0.000257504
0.000261916
0.000264029
0.000265033
0.000265501
0.000264438
0.000261566
0.000261269
0.000266944
0.000276892
0.000285673
0.000291776
0.00029644
0.000298945
0.000299823
0.000300133
0.000300302
0.000300208
0.000299479
0.000297029
0.00029209
0.000285275
0.000276255
0.000266421
0.000260883
0.000261361
0.000264499
0.000265687
0.000265323
0.000264364
0.000262194
0.000257716
0.000250796
0.000241743
0.000231527
0.000221389
0.000212201
0.000203781
0.000194811
0.000182898
0.000165908
0.000143302
0.000116549
8.84077e-05
6.18638e-05
3.91842e-05
2.18856e-05
1.04215e-05
4.11342e-06
1.32019e-06
3.40222e-07
6.85911e-08
1.00014e-08
8.99139e-10
6.6452e-11
4.10187e-11
5.82119e-11
9.7844e-11
1.39828e-09
1.56375e-08
1.07188e-07
5.28286e-07
2.01887e-06
6.15983e-06
1.53634e-05
3.21141e-05
5.7866e-05
9.23025e-05
0.000133375
0.000177529
0.000220221
0.000256731
0.000284281
0.000303659
0.000318282
0.000331684
0.000345949
0.000361413
0.000376939
0.000390815
0.000402
0.00041007
0.000415603
0.000420078
0.000424297
0.000425675
0.000423911
0.000425792
0.000435797
0.000449944
0.000459512
0.000465171
0.000471261
0.000475623
0.000477422
0.000477944
0.000478186
0.00047798
0.000476438
0.000472151
0.000465532
0.000458739
0.000448998
0.000435174
0.000425327
0.000423583
0.000425683
0.000424471
0.000420423
0.000416045
0.000410465
0.000402329
0.000391064
0.000377044
0.000361452
0.00034596
0.000331693
0.000318317
0.000303722
0.000284368
0.000256828
0.000220315
0.000177607
0.00013343
9.23338e-05
5.78791e-05
3.21174e-05
1.53633e-05
6.15937e-06
2.01862e-06
5.28209e-07
1.07171e-07
1.5635e-08
1.39805e-09
9.78118e-11
5.81844e-11
8.04009e-11
1.39871e-10
2.07432e-09
2.32352e-08
1.58731e-07
7.74066e-07
2.89646e-06
8.60544e-06
2.09911e-05
4.3378e-05
7.818e-05
0.000125601
0.000183331
0.000247587
0.000312304
0.000369225
0.000411876
0.000440129
0.000459833
0.000477729
0.000497755
0.000520253
0.000543403
0.000564824
0.000582819
0.000596854
0.000608992
0.000620867
0.000632862
0.000640034
0.000641806
0.000647575
0.000663768
0.000682985
0.000692049
0.000694983
0.000701794
0.000708504
0.000711633
0.00071244
0.000712772
0.000712404
0.000709678
0.000703039
0.000695298
0.000690686
0.000681674
0.000663099
0.000647069
0.000641338
0.000639957
0.000632942
0.0006212
0.000609496
0.000597354
0.000583241
0.000565145
0.00054353
0.000520289
0.000497739
0.000477682
0.000459805
0.00044015
0.000411961
0.000369351
0.000312437
0.0002477
0.000183413
0.000125648
7.82008e-05
4.33844e-05
2.09923e-05
8.60547e-06
2.89637e-06
7.74033e-07
1.58723e-07
2.32341e-08
2.0742e-09
1.39845e-10
8.03762e-11
1.07072e-10
1.90342e-10
2.8851e-09
3.23223e-08
2.1978e-07
1.058e-06
3.86748e-06
1.11825e-05
2.66506e-05
5.4333e-05
9.7657e-05
0.000157637
0.00023263
0.000320329
0.000414988
0.000504142
0.000573221
0.000616453
0.000640806
0.000657917
0.000678439
0.000704754
0.000734777
0.000765015
0.000792753
0.000817024
0.000839231
0.000864249
0.000890717
0.000908444
0.000917104
0.00092779
0.000952747
0.000978585
0.00098643
0.000984098
0.000990198
0.000999322
0.00100408
0.00100522
0.00100567
0.00100511
0.00100094
0.0009918
0.00098421
0.000984207
0.000976843
0.000951881
0.000927125
0.000916491
0.000908262
0.00089061
0.00086445
0.000839686
0.000817513
0.000793137
0.000765255
0.000734694
0.000704493
0.000678051
0.00065745
0.000640399
0.000616244
0.000573214
0.000504275
0.00041517
0.000320494
0.000232749
0.000157706
9.76899e-05
5.43461e-05
2.66553e-05
1.11841e-05
3.868e-06
1.05814e-06
2.1981e-07
3.23268e-08
2.88549e-09
1.90346e-10
1.07062e-10
1.35817e-10
2.433e-10
3.71499e-09
4.15786e-08
2.81218e-07
1.33555e-06
4.77363e-06
1.34699e-05
3.14312e-05
6.33089e-05
0.000113439
0.000183786
0.000274111
0.000385143
0.000515102
0.000651292
0.000768776
0.000847113
0.000887468
0.000905808
0.0009184
0.000936226
0.000962254
0.000994037
0.00102778
0.00106261
0.00109902
0.00114264
0.00119329
0.00122853
0.00124568
0.0012641
0.00130023
0.00133543
0.00134258
0.00133295
0.00133625
0.00134719
0.00135361
0.00135508
0.00135571
0.00135497
0.00134932
0.00133815
0.00133265
0.00133919
0.00133316
0.00129929
0.00126338
0.00124481
0.00122825
0.00119289
0.00114253
0.00109934
0.00106294
0.0010279
0.000993819
0.000961423
0.000934974
0.000916897
0.000904267
0.000886275
0.000846436
0.000768587
0.000651426
0.000515345
0.000385369
0.000274272
0.000183883
0.00011349
6.33335e-05
3.14425e-05
1.34747e-05
4.77548e-06
1.3361e-06
2.8134e-07
4.15971e-08
3.71663e-09
2.43378e-10
1.35843e-10
1.62481e-10
2.89789e-10
4.40471e-09
4.92153e-08
3.31198e-07
1.5542e-06
5.45323e-06
1.50887e-05
3.46451e-05
6.91304e-05
0.00012356
0.000200906
0.000302163
0.000431129
0.000592875
0.000782222
0.000972827
0.00112431
0.00121513
0.00125518
0.0012689
0.00127205
0.00127717
0.0012872
0.00130597
0.00133707
0.00138295
0.00144643
0.00153254
0.00159323
0.00162323
0.00165316
0.00170244
0.00174887
0.00175734
0.00173976
0.00173793
0.00174929
0.00175698
0.00175868
0.00175952
0.00175872
0.00175195
0.00174004
0.00173877
0.00175242
0.00174591
0.00170145
0.00165252
0.00162214
0.00159298
0.0015317
0.00144591
0.00138298
0.00133714
0.00130558
0.00128597
0.00127481
0.00126894
0.00126548
0.00125206
0.00121285
0.00112312
0.000972507
0.000782393
0.000593186
0.000431401
0.000302351
0.000201026
0.000123632
6.91709e-05
3.46662e-05
1.50986e-05
5.45721e-06
1.55545e-06
3.3148e-07
4.92583e-08
4.40854e-09
2.89999e-10
1.62573e-10
1.8273e-10
3.22151e-10
4.83933e-09
5.39742e-08
3.61834e-07
1.68335e-06
5.83177e-06
1.59255e-05
3.6181e-05
7.17765e-05
0.000128164
0.000209275
0.000316649
0.000455057
0.000636041
0.000865751
0.00113199
0.00139143
0.00159001
0.00170794
0.00175944
0.0017662
0.00174683
0.00171441
0.00168253
0.0016699
0.0016972
0.00177065
0.00189647
0.00199464
0.00204424
0.00208949
0.00215321
0.0022112
0.00222439
0.00220027
0.0021917
0.00220107
0.00220915
0.00221084
0.00221193
0.00221131
0.00220422
0.00219386
0.00219834
0.00221764
0.00220765
0.00215244
0.00208913
0.0020432
0.0019944
0.00189496
0.00177005
0.0016972
0.00166994
0.00168161
0.00171187
0.00174246
0.00176083
0.00175405
0.00170363
0.00158732
0.00139031
0.00113188
0.000866071
0.00063641
0.000455324
0.000316835
0.000209409
0.000128256
7.18343e-05
3.62136e-05
1.59417e-05
5.83848e-06
1.6855e-06
3.62329e-07
5.40503e-08
4.84617e-09
3.2255e-10
1.82924e-10
1.94044e-10
3.37768e-10
5.00765e-09
5.57722e-08
3.73085e-07
1.72768e-06
5.94623e-06
1.61302e-05
3.64631e-05
7.21994e-05
0.000129147
0.000211971
0.000322822
0.000464635
0.000648997
0.000894724
0.00120857
0.00156555
0.00190948
0.00217537
0.00233654
0.00240907
0.00240254
0.00233743
0.00223449
0.00212918
0.00207811
0.00212185
0.00226941
0.00242594
0.0025019
0.00256614
0.00264511
0.00271228
0.00273397
0.00270742
0.00269168
0.00269609
0.00270313
0.00270447
0.00270578
0.00270566
0.00269952
0.00269355
0.00270436
0.00272543
0.00270818
0.00264488
0.00256624
0.00250134
0.00242578
0.00226752
0.00212164
0.00207911
0.00213021
0.00223353
0.00233404
0.00239719
0.0024031
0.0023314
0.00217172
0.00190792
0.00156544
0.00120904
0.000895245
0.0006493
0.000464817
0.000322972
0.000212109
0.000129256
7.22736e-05
3.65071e-05
1.61527e-05
5.95582e-06
1.73082e-06
3.73815e-07
5.58849e-08
5.01783e-09
3.38395e-10
1.94369e-10
1.96538e-10
3.39179e-10
4.98337e-09
5.54628e-08
3.70832e-07
1.71565e-06
5.89754e-06
1.59796e-05
3.61127e-05
7.16263e-05
0.000128712
0.000212683
0.00032676
0.000472157
0.000654788
0.000893209
0.00121183
0.00161505
0.00206716
0.00250907
0.0028599
0.00306216
0.00315285
0.00312894
0.00299469
0.00279016
0.00259633
0.00253002
0.00264743
0.00287592
0.00298767
0.00307464
0.003169
0.0032383
0.003272
0.00325033
0.00322808
0.00322432
0.00322867
0.00322932
0.00323074
0.00323134
0.0032274
0.00322915
0.0032461
0.00326237
0.00323361
0.00316862
0.00307517
0.00298796
0.00287615
0.00264663
0.00253193
0.00260023
0.00279321
0.0029948
0.00312665
0.00314955
0.00305868
0.00285754
0.00250885
0.00206837
0.00161649
0.0012128
0.000893588
0.000654854
0.00047219
0.000326854
0.000212802
0.000128826
7.171e-05
3.61636e-05
1.60063e-05
5.9091e-06
1.71949e-06
3.71737e-07
5.56032e-08
4.99611e-09
3.40018e-10
1.97006e-10
1.92285e-10
3.31741e-10
4.87264e-09
5.42413e-08
3.62952e-07
1.68229e-06
5.79872e-06
1.57583e-05
3.5724e-05
7.11279e-05
0.000128587
0.000214431
0.00033273
0.000484549
0.000671017
0.000899721
0.00119312
0.00157869
0.00205976
0.00259757
0.00313561
0.00355732
0.0038272
0.00391631
0.00386933
0.00365304
0.003323
0.00305998
0.00305714
0.00331805
0.00348647
0.0036034
0.00370963
0.00376793
0.00381863
0.00381266
0.00378648
0.00377203
0.0037712
0.00377089
0.00377213
0.00377364
0.00377382
0.003786
0.00380757
0.00380894
0.00376338
0.00370882
0.00360478
0.00348802
0.00331932
0.00305948
0.00306669
0.0033317
0.00365893
0.00387167
0.00391686
0.00382752
0.00355887
0.00313864
0.00260174
0.00206349
0.00158094
0.00119393
0.000899713
0.000670807
0.000484443
0.000332729
0.000214517
0.000128689
7.12096e-05
3.57767e-05
1.57871e-05
5.81152e-06
1.68661e-06
3.63976e-07
5.44007e-08
4.88716e-09
3.32751e-10
1.92879e-10
1.84176e-10
3.20077e-10
4.73752e-09
5.27839e-08
3.53741e-07
1.64531e-06
5.70061e-06
1.55787e-05
3.55116e-05
7.11127e-05
0.000129513
0.000218123
0.000342773
0.000505234
0.000702574
0.000933611
0.00120598
0.00154209
0.00197227
0.00250594
0.00311134
0.00373383
0.00421516
0.00454831
0.004663
0.00457638
0.00424348
0.00378247
0.00354605
0.00371392
0.00397831
0.00412875
0.00422404
0.00426298
0.00434599
0.00437195
0.00434659
0.0043195
0.00431118
0.00430977
0.00431037
0.00431294
0.00431916
0.00434442
0.00436675
0.00433766
0.00425993
0.00422522
0.00413228
0.00398127
0.00371717
0.00355335
0.00379605
0.00425687
0.00458427
0.00466704
0.00455079
0.00421886
0.00373998
0.00311808
0.00251197
0.00197642
0.00154388
0.00120619
0.000933181
0.000702
0.000504869
0.000342651
0.000218143
0.000129578
7.11739e-05
3.55544e-05
1.56036e-05
5.71216e-06
1.64931e-06
3.54702e-07
5.29342e-08
4.75132e-09
3.21119e-10
1.84834e-10
1.75013e-10
3.08284e-10
4.62662e-09
5.16152e-08
3.46515e-07
1.6181e-06
5.63993e-06
1.55138e-05
3.55849e-05
7.16817e-05
0.000131412
0.000223051
0.000353879
0.000528368
0.000745589
0.000995093
0.00126513
0.00156768
0.00192467
0.00237208
0.00293245
0.00358823
0.00428423
0.00485285
0.00524344
0.00538492
0.00520964
0.00469907
0.00418403
0.00410788
0.00440839
0.00459969
0.00464737
0.00467919
0.00481757
0.00489962
0.00488369
0.00484283
0.00482446
0.00482137
0.00482095
0.00482463
0.00483911
0.00487984
0.00489531
0.00481205
0.00467721
0.00465045
0.00460718
0.00441401
0.00411423
0.0041974
0.00471873
0.00522443
0.0053927
0.00524523
0.00485521
0.00429168
0.00359559
0.00293904
0.0023769
0.00192743
0.00156868
0.00126503
0.000994644
0.00074527
0.000528165
0.000353782
0.000223034
0.000131437
7.17166e-05
3.56135e-05
1.55321e-05
5.649e-06
1.62135e-06
3.47306e-07
5.17397e-08
4.63813e-09
3.09227e-10
1.75644e-10
1.66581e-10
2.98016e-10
4.5419e-09
5.07367e-08
3.41162e-07
1.59902e-06
5.60534e-06
1.55169e-05
3.58101e-05
7.25369e-05
0.000133732
0.000228318
0.000364273
0.000546512
0.000777154
0.00105265
0.0013542
0.0016546
0.00196699
0.00232151
0.00276726
0.00334822
0.00405833
0.00483181
0.00551427
0.00595111
0.00606274
0.00569623
0.005018
0.00460897
0.00470725
0.00489558
0.00493619
0.00500723
0.00520455
0.00536493
0.00537339
0.00531957
0.00528815
0.00528219
0.00528069
0.00528558
0.0053128
0.00536836
0.00536254
0.00519941
0.00500326
0.00494019
0.00490699
0.00471563
0.00461833
0.00503604
0.00571762
0.00607517
0.00595259
0.00551247
0.00483366
0.00406174
0.00335299
0.00277208
0.00232495
0.00196914
0.00165575
0.00135445
0.00105229
0.00077664
0.000546062
0.000363939
0.000228115
0.000133632
7.24975e-05
3.57995e-05
1.55171e-05
5.60728e-06
1.60008e-06
3.41462e-07
5.07864e-08
4.54674e-09
2.98602e-10
1.6706e-10
1.5939e-10
2.89522e-10
4.47768e-09
5.00794e-08
3.37204e-07
1.58548e-06
5.58549e-06
1.55478e-05
3.60704e-05
7.34175e-05
0.00013597
0.000233078
0.00037269
0.000560072
0.00079791
0.00108543
0.0014143
0.00175177
0.00206093
0.00236887
0.00271636
0.00317257
0.00379922
0.00459307
0.00546405
0.00623429
0.00665188
0.00663485
0.00600581
0.00530779
0.00505283
0.00509369
0.00515886
0.00528981
0.0055313
0.00576182
0.00581426
0.00575224
0.0057038
0.00569184
0.00568999
0.00569983
0.00574729
0.00581251
0.00576148
0.00552136
0.00527996
0.00516045
0.00510191
0.00505937
0.00531727
0.00602327
0.00665297
0.00665705
0.00623007
0.00545768
0.00458779
0.00379762
0.00317423
0.0027199
0.00237302
0.00206501
0.00175381
0.00141385
0.00108445
0.000796988
0.000559296
0.000372093
0.000232666
0.000135718
7.32812e-05
3.60058e-05
1.55214e-05
5.57668e-06
1.58317e-06
3.36742e-07
5.00131e-08
4.47213e-09
2.89503e-10
1.59575e-10
1.54073e-10
2.84781e-10
4.47754e-09
5.01418e-08
3.37984e-07
1.59274e-06
5.63009e-06
1.57289e-05
3.6607e-05
7.47208e-05
0.000138708
0.00023818
0.000380958
0.000572516
0.000815406
0.00110919
0.00144771
0.00180575
0.00214307
0.0024554
0.00276665
0.00312991
0.00363801
0.0043481
0.00525899
0.00623445
0.00698838
0.0072934
0.00704139
0.00626279
0.00566761
0.0054622
0.00547554
0.00565155
0.00593285
0.00619217
0.00628484
0.00622316
0.00615494
0.00613116
0.00613209
0.00616092
0.00623481
0.006295
0.00619187
0.0059134
0.00563041
0.00546553
0.00545748
0.00566398
0.00626536
0.00705156
0.00729929
0.0069859
0.00622245
0.00524569
0.00433733
0.00363273
0.00312942
0.00276903
0.00245937
0.00214754
0.00180687
0.00144575
0.00110686
0.000813376
0.000570895
0.000379766
0.000237374
0.000138204
7.44344e-05
3.64596e-05
1.56619e-05
5.60459e-06
1.58516e-06
3.36328e-07
4.98937e-08
4.45571e-09
2.83796e-10
1.53777e-10
1.54664e-10
2.91692e-10
4.67186e-09
5.23791e-08
3.53079e-07
1.66312e-06
5.87267e-06
1.63828e-05
3.80723e-05
7.76001e-05
0.000143809
0.000246384
0.000393279
0.000589574
0.000837643
0.00113644
0.00147787
0.00184414
0.00220588
0.0025501
0.0028767
0.00320311
0.00360904
0.00419988
0.00503578
0.00608407
0.00713592
0.00774187
0.00790213
0.00745567
0.00675387
0.0063094
0.00619594
0.00637372
0.00668047
0.00694141
0.00704806
0.00699201
0.00690697
0.00686792
0.00687793
0.00694148
0.00704391
0.00708456
0.00694446
0.00664928
0.00632985
0.00615732
0.00627656
0.00672849
0.00744358
0.00789404
0.00773449
0.00711977
0.00606428
0.00501759
0.00418596
0.00360203
0.00320089
0.0028765
0.00255079
0.00220705
0.0018436
0.00147564
0.00113326
0.000834836
0.000587353
0.000391616
0.000245235
0.000143053
7.71472e-05
3.78263e-05
1.62649e-05
5.82547e-06
1.64849e-06
3.49806e-07
5.18835e-08
4.62774e-09
2.89296e-10
1.53611e-10
1.67918e-10
3.20953e-10
5.20117e-09
5.83169e-08
3.92171e-07
1.83619e-06
6.42285e-06
1.77332e-05
4.08334e-05
8.25843e-05
0.00015198
0.000258677
0.000410922
0.000613988
0.000869513
0.0011756
0.0015263
0.00190896
0.00229986
0.00267928
0.00303763
0.00336107
0.00369023
0.00415185
0.00486729
0.00589074
0.0070746
0.00810586
0.00867144
0.00881116
0.00841949
0.00797469
0.00776153
0.00789687
0.00818751
0.00842844
0.00853014
0.00849114
0.00840603
0.0083594
0.00838764
0.00848917
0.00860401
0.00861106
0.00844242
0.0081409
0.00781885
0.00767057
0.00789528
0.00836182
0.00877678
0.00864688
0.0080865
0.00705224
0.00586696
0.00484837
0.00413865
0.00368301
0.00335652
0.00303326
0.00267542
0.00229666
0.00190617
0.00152353
0.0011731
0.000867412
0.000612294
0.000409588
0.000257671
0.000151272
8.21309e-05
4.05717e-05
1.75994e-05
6.36619e-06
1.81781e-06
3.87936e-07
5.76677e-08
5.14282e-09
3.17421e-10
1.66118e-10
1.92139e-10
3.65771e-10
5.90479e-09
6.61071e-08
4.42574e-07
2.05101e-06
7.06645e-06
1.9203e-05
4.36101e-05
8.72339e-05
0.000158992
0.000268442
0.000424192
0.000632491
0.00089623
0.00121487
0.00158457
0.00199684
0.00243217
0.00285573
0.00323954
0.00356962
0.00384743
0.00417855
0.0047539
0.00570572
0.00701257
0.00837804
0.00952051
0.0102938
0.0105696
0.0104825
0.0103555
0.0104637
0.010687
0.0108726
0.010966
0.0109649
0.010916
0.010882
0.0109356
0.0110549
0.0111532
0.0111028
0.0109051
0.010627
0.0103642
0.0102161
0.0103621
0.0104837
0.0102402
0.00948565
0.00835176
0.00698408
0.00568023
0.00473616
0.0041677
0.00383999
0.00356403
0.00323372
0.00285053
0.00242846
0.0019946
0.00158352
0.00121446
0.000896002
0.000632244
0.00042387
0.000268081
0.000158657
8.69788e-05
4.34458e-05
1.91117e-05
7.02509e-06
2.03686e-06
4.39201e-07
6.55821e-08
5.85717e-09
3.62647e-10
1.90399e-10
2.14235e-10
4.03293e-10
6.44467e-09
7.20247e-08
4.80243e-07
2.20584e-06
7.50467e-06
2.01288e-05
4.51881e-05
8.95074e-05
0.000161638
0.000270774
0.000425844
0.000634547
0.000902166
0.00123081
0.00161878
0.00205967
0.00253866
0.00302182
0.00344853
0.00377774
0.0040111
0.00423815
0.00468549
0.00556033
0.00695452
0.00869409
0.0104362
0.0118909
0.0127816
0.0131014
0.0131861
0.0133462
0.0135189
0.0136757
0.0138085
0.0138724
0.0139009
0.0139117
0.013961
0.0140693
0.0141257
0.0139839
0.0137287
0.0134579
0.0132637
0.0130597
0.0129762
0.0126896
0.0118306
0.0103984
0.00867411
0.00693556
0.00554445
0.00467342
0.00422772
0.00400536
0.00377301
0.00344465
0.00301895
0.00253699
0.00205899
0.00161875
0.00123118
0.000902637
0.00063487
0.000425971
0.000270746
0.000161541
8.94083e-05
4.51165e-05
2.00863e-05
7.48449e-06
2.19869e-06
4.78499e-07
7.17503e-08
6.41965e-09
4.01585e-10
2.13245e-10
2.2521e-10
4.20684e-10
6.67533e-09
7.45293e-08
4.9595e-07
2.26816e-06
7.67046e-06
2.04448e-05
4.56362e-05
8.99254e-05
0.000161529
0.000269226
0.000421916
0.000628076
0.000894709
0.00122627
0.00162335
0.00208083
0.00258457
0.00310438
0.00357923
0.00392082
0.00412026
0.00428145
0.004649
0.00547252
0.00691878
0.00893716
0.0111367
0.0130534
0.0143444
0.014897
0.0151115
0.0153464
0.0155289
0.0157091
0.0159325
0.0160884
0.0162106
0.0162726
0.0162581
0.016345
0.0163597
0.0161184
0.0157751
0.0154917
0.0153194
0.0150905
0.0148462
0.0142962
0.0130141
0.0111117
0.00892707
0.00691118
0.00546661
0.00464264
0.00427278
0.00411474
0.00391769
0.00357762
0.00310366
0.0025842
0.00208057
0.00162321
0.00122625
0.000894741
0.000628094
0.0004219
0.000269188
0.000161486
8.98904e-05
4.56127e-05
2.04314e-05
7.66425e-06
2.26598e-06
4.95419e-07
7.44457e-08
6.66771e-09
4.20177e-10
2.24924e-10
2.2462e-10
4.19726e-10
6.66233e-09
7.43882e-08
4.95062e-07
2.26457e-06
7.66044e-06
2.04235e-05
4.55983e-05
8.9865e-05
0.00016144
0.0002691
0.000421729
0.00062778
0.000894207
0.00122542
0.00162203
0.00207908
0.00258285
0.0031037
0.00357999
0.00392082
0.00411717
0.00427482
0.00463955
0.00545749
0.00690085
0.00892442
0.0111245
0.0130368
0.0143181
0.0148467
0.0150623
0.0153043
0.0155087
0.0156993
0.0159438
0.0161058
0.0161851
0.016226
0.0161876
0.0162862
0.016298
0.0160802
0.0157624
0.0155244
0.0153664
0.015165
0.0149243
0.0143399
0.0130387
0.0111231
0.00892713
0.00690728
0.00546202
0.00463794
0.00426934
0.0041138
0.00392058
0.00358046
0.0031036
0.00258235
0.00207808
0.00162064
0.00122401
0.000893055
0.000626986
0.000421265
0.000268872
0.000161347
8.98362e-05
4.55938e-05
2.04259e-05
7.66304e-06
2.2658e-06
4.95401e-07
7.4444e-08
6.66759e-09
4.20216e-10
2.24975e-10
2.1233e-10
3.99966e-10
6.39562e-09
7.14873e-08
4.76823e-07
2.19168e-06
7.4635e-06
2.00366e-05
4.50136e-05
8.92078e-05
0.000161162
0.000270054
0.000424769
0.000632921
0.000899701
0.00122714
0.00161373
0.00205365
0.0025326
0.00301775
0.00344738
0.00377209
0.00400035
0.00421858
0.0046577
0.00552101
0.00691329
0.00866222
0.0104052
0.0118578
0.0127266
0.0130077
0.013079
0.0132511
0.0134538
0.0136445
0.0138098
0.0138611
0.013835
0.0138164
0.0137859
0.0138809
0.0139667
0.0138766
0.0137035
0.0135249
0.013368
0.0132411
0.0131348