/*--------------------------------*- C++ -*----------------------------------*\
| =========                 |                                                 |
| \\      /  F ield         | OpenFOAM: The Open Source CFD Toolbox           |
|  \\    /   O peration     | Version:  2212                                  |
|   \\  /    A nd           | Website:  www.openfoam.com                      |
|    \\/     M anipulation  |                                                 |
\*---------------------------------------------------------------------------*/
FoamFile
{
    version     2.0;
    format      ascii;
    arch        "LSB;label=32;scalar=64";
    class       volScalarField;
    location    "6000";
    object      omega;
}
// * * * * * * * * * * * * * * * * * * * * * * * * * * * * * * * * * * * * * //

dimensions      [0 0 -1 0 0 0 0];

internalField   nonuniform List<scalar> 
4800
(
38190.2
30996
30996
30996
30996
30996
30996
30996
30996
30996
30996
30996
30996
30996
30996
30996
30996
30996
30996
30996
30996
30996
30996
30996
30996
30996
30996
30996
30996
30996
30996
30996
30996
30996
30996
30996
30996
30996
30996
30996
30996
30996
30996
30996
30996
30996
30996
30996
30996
30996
30996
30996
30996
30996
30996
30996
30996
30996
30996
30996
30996
30996
30996
30996
30996
30996
30996
30996
30996
30996
30996
30996
30996
30996
30996
30996
30996
30996
30996
38190.2
38190.2
7057.08
4678.6
4487.72
4471.67
4470.1
4470.37
4472.12
4480.48
4535.29
4670.78
4671.71
4671.72
4671.73
4671.74
4671.75
4671.78
4671.82
4671.85
4671.88
4671.9
4671.91
4671.92
4671.94
4671.95
4671.96
4671.97
4671.97
4671.97
4671.96
4671.95
4671.95
4671.95
4671.95
4671.96
4671.98
4671.99
4671.99
4671.99
4671.99
4671.99
4671.99
4671.99
4671.99
4671.98
4671.96
4671.95
4671.95
4671.95
4671.95
4671.96
4671.97
4671.97
4671.97
4671.96
4671.95
4671.94
4671.92
4671.91
4671.9
4671.88
4671.85
4671.82
4671.78
4671.75
4671.74
4671.73
4671.72
4671.71
4670.8
4536.17
4480.59
4472.13
4470.37
4470.1
4471.67
4487.72
4678.6
7057.07
38190.2
38190.2
5648.12
2039.98
1418.11
1310.57
1292.38
1289.24
1288.97
1290.58
1300.54
1323.86
1324.51
1324.55
1324.6
1324.65
1324.73
1324.82
1324.92
1325.01
1325.09
1325.15
1325.2
1325.25
1325.3
1325.35
1325.38
1325.39
1325.38
1325.35
1325.31
1325.27
1325.24
1325.23
1325.28
1325.35
1325.42
1325.45
1325.45
1325.45
1325.45
1325.45
1325.45
1325.45
1325.45
1325.42
1325.35
1325.27
1325.23
1325.23
1325.27
1325.32
1325.35
1325.38
1325.39
1325.38
1325.35
1325.3
1325.25
1325.2
1325.14
1325.09
1325.01
1324.92
1324.82
1324.73
1324.65
1324.6
1324.55
1324.51
1323.87
1300.71
1290.6
1288.98
1289.24
1292.38
1310.57
1418.11
2039.98
5648.11
38190.2
38190.2
5565.76
1681.51
809.919
583.827
526.495
512.615
509.414
509.194
511.718
517.508
517.97
518.09
518.215
518.368
518.554
518.765
518.975
519.161
519.316
519.447
519.571
519.695
519.814
519.915
519.979
519.993
519.956
519.884
519.795
519.693
519.6
519.582
519.7
519.901
520.055
520.113
520.114
520.106
520.106
520.108
520.111
520.119
520.117
520.056
519.899
519.695
519.576
519.596
519.692
519.798
519.889
519.96
519.996
519.98
519.913
519.811
519.69
519.566
519.443
519.312
519.158
518.972
518.762
518.552
518.365
518.212
518.087
517.968
517.51
511.76
509.201
509.414
512.614
526.494
583.827
809.919
1681.51
5565.76
38190.2
38190.2
5560.22
1634.28
683.67
384.708
285.134
253.22
243.623
241.098
241.28
242.924
243.274
243.49
243.74
244.038
244.381
244.748
245.1
245.407
245.664
245.889
246.103
246.318
246.523
246.691
246.795
246.811
246.741
246.614
246.46
246.283
246.116
246.081
246.293
246.647
246.911
247.007
247.006
246.991
246.99
246.994
246.999
247.013
247.013
246.914
246.644
246.285
246.071
246.108
246.282
246.465
246.622
246.749
246.817
246.797
246.689
246.517
246.31
246.095
245.88
245.657
245.401
245.095
244.743
244.377
244.035
243.737
243.486
243.271
242.923
241.292
241.1
243.623
253.219
285.134
384.708
683.67
1634.28
5560.22
38190.2
38190.2
5559.88
1627.89
658.702
331.061
204.456
154.798
136.268
129.932
128.243
128.347
128.554
128.849
129.23
129.678
130.175
130.689
131.174
131.594
131.947
132.258
132.554
132.848
133.123
133.347
133.484
133.506
133.412
133.24
133.031
132.788
132.554
132.503
132.795
133.278
133.63
133.757
133.755
133.735
133.733
133.738
133.745
133.765
133.764
133.634
133.274
132.785
132.489
132.544
132.787
133.039
133.251
133.423
133.513
133.486
133.343
133.115
132.837
132.542
132.246
131.937
131.585
131.167
130.683
130.169
129.672
129.225
128.844
128.549
128.344
128.245
129.931
136.267
154.797
204.456
331.061
658.703
1627.89
5559.88
38190.2
38190.2
5560.36
1627.02
653.865
317.483
178.716
117.367
90.501
79.4531
75.4208
74.3234
74.2207
74.4933
74.9404
75.4762
76.0612
76.6594
77.2231
77.7132
78.1344
78.5074
78.8567
79.1966
79.5083
79.7617
79.9209
79.9531
79.8536
79.6608
79.4189
79.1327
78.8561
78.7911
79.1285
79.6807
80.077
80.2206
80.2192
80.1971
80.195
80.2006
80.2085
80.2304
80.2283
80.0801
79.6761
79.1166
78.7743
78.8437
79.1318
79.4279
79.6731
79.865
79.9605
79.9224
79.7573
79.499
79.1836
78.8424
78.4933
78.1218
77.7031
77.2143
76.6515
76.0538
75.4692
74.9338
74.4872
74.2155
74.3195
75.4189
79.4517
90.5002
117.368
178.717
317.484
653.866
1627.02
5560.37
38190.2
38190.2
5562.17
1627.22
653.014
314.252
171.128
104.056
71.5985
56.3164
49.6655
47.1651
46.4761
46.535
46.9204
47.4346
48.0065
48.6025
49.178
49.6897
50.1271
50.5025
50.8418
51.163
51.459
51.7062
51.871
51.9199
51.8398
51.6585
51.4199
51.1402
50.8699
50.7999
51.1119
51.634
52.0155
52.1584
52.1612
52.1408
52.1381
52.1434
52.1516
52.1718
52.1653
52.0175
51.6287
51.1003
50.7844
50.8587
51.1398
51.4285
51.6701
51.8498
51.9258
51.8711
51.701
51.4496
51.1507
50.8284
50.4893
50.1152
49.6796
49.1688
48.5938
47.9982
47.4265
46.9127
46.5281
46.4701
47.1605
49.6627
56.315
71.5985
104.057
171.13
314.253
653.016
1627.22
5562.19
38190.2
38190.2
5569.88
1628.72
653.314
313.717
169.18
99.8272
64.477
46.319
37.3751
33.3653
31.8306
31.4461
31.5654
31.893
32.3234
32.8162
33.3278
33.8068
34.2214
34.5681
34.8665
35.1378
35.3885
35.6073
35.768
35.8384
35.7944
35.6478
35.4341
35.1846
34.9458
34.8751
35.1253
35.5627
35.8943
36.0275
36.0372
36.0213
36.0181
36.0226
36.0306
36.0463
36.033
35.8947
35.5569
35.115
34.8626
34.9375
35.1851
35.4416
35.6573
35.8018
35.8417
35.7664
35.6017
35.38
35.1276
34.8557
34.5577
34.2119
33.7981
33.3192
32.8077
32.3148
31.8846
31.5573
31.4389
31.8246
33.361
37.3728
46.3185
64.478
99.8294
169.183
313.721
653.32
1628.73
5569.94
38190.2
38190.2
5613.82
1637.02
655.684
314.49
169.132
98.8662
62.2431
42.514
31.9835
26.6232
24.1192
23.0939
22.7768
22.7893
22.9786
23.2925
23.6826
24.0873
24.4531
24.7547
24.9998
25.2107
25.4059
25.5875
25.739
25.8312
25.83
25.7291
25.5514
25.3426
25.1469
25.0792
25.2537
25.5854
25.8547
25.976
25.9945
25.9846
25.9812
25.9848
25.992
26.0017
25.9801
25.8538
25.5792
25.2449
25.07
25.1417
25.3438
25.5574
25.7358
25.8343
25.8317
25.7357
25.5818
25.3989
25.2034
24.9927
24.7481
24.4468
24.081
23.6755
23.2849
22.9706
22.7812
22.7691
23.0871
24.114
26.6199
31.9822
42.5146
62.2453
98.87
169.138
314.502
655.71
1637.1
5614.2
38190.2
38190.2
5788.85
1668.38
663.961
317.245
170.182
99.1706
61.9264
41.4216
29.9465
23.5883
20.1912
18.4605
17.6141
17.2316
17.1236
17.2121
17.4424
17.7427
18.0403
18.2885
18.4801
18.6343
18.7771
18.9218
19.0616
19.1717
19.2127
19.1585
19.0227
18.8577
18.7095
18.6481
18.749
18.9751
19.1829
19.2929
19.3204
19.3173
19.3144
19.317
19.323
19.326
19.2956
19.181
18.969
18.7419
18.6419
18.7067
18.8595
19.0272
19.1625
19.2139
19.1696
19.0572
18.9166
18.7723
18.6305
18.4772
18.2862
18.0378
17.7393
17.4377
17.2061
17.1169
17.2246
17.6074
18.4548
20.1873
23.5863
29.9465
41.4231
61.9292
99.175
170.189
317.259
663.996
1668.5
5789.41
38190.2
38190.2
5810.26
1672.38
665.197
317.855
170.641
99.5691
62.1874
41.385
29.3869
22.357
18.253
15.8812
14.511
13.7221
13.303
13.1536
13.2065
13.3828
13.5997
13.7922
13.9376
14.0477
14.1498
14.2641
14.3923
14.515
14.5917
14.5802
14.4879
14.3656
14.2631
14.2112
14.2505
14.3839
14.5368
14.6363
14.672
14.6756
14.674
14.6756
14.6797
14.6762
14.6381
14.5346
14.3786
14.2449
14.2074
14.2621
14.3676
14.4909
14.5819
14.5904
14.5109
14.3877
14.2602
14.1477
14.0477
13.939
13.794
13.601
13.3825
13.2043
13.1498
13.298
13.7165
14.5058
15.877
18.2504
22.356
29.3874
41.3865
62.1895
99.5716
170.644
317.858
665.2
1672.38
5810.26
38190.2
38190.2
5810.3
1672.43
665.297
318.062
170.982
100.012
62.6346
41.6964
29.3882
21.9037
17.2749
14.389
12.5726
11.4233
10.7211
10.3489
10.225
10.2693
10.3966
10.5333
10.6424
10.7236
10.8002
10.8943
11.0137
11.145
11.2498
11.2768
11.2253
11.1436
11.082
11.0409
11.0337
11.0922
11.1978
11.2872
11.3293
11.339
11.3392
11.3402
11.3419
11.3322
11.2882
11.196
11.0883
11.0296
11.0387
11.0819
11.1454
11.2267
11.2766
11.2466
11.1399
11.0094
10.892
10.8007
10.7269
10.6475
10.5386
10.4011
10.2718
10.2253
10.3473
10.718
11.4196
12.5689
14.386
17.2732
21.9034
29.3889
41.6979
62.6365
100.014
170.984
318.064
665.298
1672.43
5810.3
38190.2
38190.2
5810.29
1672.44
665.399
318.302
171.383
100.535
63.1809
42.1463
29.6002
21.7742
16.7502
13.4712
11.3057
9.86856
8.93164
8.3655
8.07988
7.9911
8.02147
8.09822
8.17525
8.23941
8.30439
8.38974
8.50597
8.64472
8.77215
8.83357
8.81958
8.77609
8.74864
8.71839
8.6787
8.68061
8.74597
8.82454
8.87104
8.88622
8.8886
8.88873
8.8879
8.87285
8.82501
8.74463
8.67844
8.67618
8.71764
8.74913
8.77776
8.81958
8.83197
8.76758
8.63936
8.50233
8.38905
8.30722
8.24528
8.18306
8.10571
8.02797
7.99569
8.0819
8.36547
8.93012
9.8662
11.3031
13.4689
16.7489
21.774
29.6008
42.1475
63.1825
100.537
171.384
318.304
665.4
1672.45
5810.29
38190.2
38190.2
5810.3
1672.5
665.552
318.611
171.863
101.144
63.8333
42.7027
29.9474
21.8406
16.5043
12.9187
10.4806
8.81527
7.69161
6.9627
6.53321
6.31947
6.24618
6.25316
6.29313
6.34285
6.40245
6.48643
6.60458
6.75174
6.89869
6.99153
7.0131
7.00418
7.0038
6.98386
6.92396
6.88478
6.9167
6.98342
7.03212
7.05184
7.05637
7.05582
7.05258
7.03302
6.98339
6.91595
6.88453
6.92297
6.98383
7.00446
7.00581
7.01198
6.98869
6.89338
6.74628
6.60157
6.48702
6.40665
6.34976
6.30285
6.26197
6.25337
6.32436
6.53559
6.96317
7.69079
8.81349
10.4783
12.9165
16.5027
21.8398
29.9477
42.7037
63.8347
101.146
171.865
318.612
665.553
1672.5
5810.3
38190.2
38190.2
5810.32
1672.58
665.751
318.967
172.386
101.788
64.5287
43.3261
30.4122
22.0887
16.5097
12.6761
10.0125
8.15562
6.87014
6.00349
5.44776
5.12037
4.95066
4.87927
4.86676
4.88903
4.93861
5.01948
5.13918
5.29368
5.45814
5.57993
5.63531
5.65692
5.6777
5.66591
5.59592
5.52936
5.53419
5.58795
5.63667
5.66001
5.66652
5.66541
5.65987
5.63686
5.58746
5.53399
5.53117
5.59699
5.66618
5.67816
5.65869
5.63315
5.5761
5.45217
5.28847
5.13671
5.0208
4.94331
4.89613
4.87605
4.88683
4.95663
5.12453
5.44963
6.00382
6.86881
8.15324
10.0095
12.6731
16.5071
22.0871
30.4117
43.3266
64.53
101.79
172.387
318.968
665.751
1672.58
5810.32
38190.2
38190.2
5810.36
1672.69
665.96
319.313
172.871
102.378
65.172
43.9493
30.9511
22.4913
16.7345
12.7145
9.86292
7.83411
6.4026
5.40647
4.73486
4.30248
4.04098
3.89532
3.8251
3.80407
3.82549
3.89031
4.00229
4.15742
4.33437
4.48244
4.5687
4.6173
4.65415
4.64909
4.5778
4.49405
4.47735
4.51765
4.56456
4.59026
4.59852
4.59694
4.58937
4.56398
4.51682
4.47758
4.49768
4.57922
4.6491
4.65408
4.61819
4.56575
4.47749
4.32785
4.15253
4.0003
3.89165
3.83004
3.8102
3.83131
3.90073
4.04519
4.30438
4.73473
5.40478
6.39944
7.82981
9.85815
12.7099
16.7306
22.4888
30.9503
43.9502
65.174
102.381
172.873
319.314
665.96
1672.69
5810.36
38190.2
38190.2
5810.4
1672.78
666.133
319.582
173.238
102.828
65.6824
44.4845
31.4763
22.9669
17.1183
12.9674
9.97416
7.80295
6.23275
5.11524
4.33311
3.80079
3.45061
3.22983
3.09886
3.03026
3.01093
3.04157
3.12824
3.27003
3.44935
3.618
3.73113
3.80289
3.85208
3.85325
3.78605
3.69391
3.66065
3.68802
3.73116
3.75827
3.76768
3.76598
3.75667
3.72987
3.68682
3.66123
3.69868
3.7876
3.85244
3.85195
3.80241
3.72782
3.61246
3.4428
3.26552
3.12659
3.04284
3.01425
3.03397
3.10265
3.23203
3.45117
3.79943
4.32986
5.11045
6.22684
7.79604
9.96726
12.961
17.1133
22.964
31.4758
44.4864
65.686
102.832
173.241
319.584
666.134
1672.78
5810.4
38190.2
38190.2
5810.43
1672.85
666.242
319.738
173.444
103.087
65.9964
44.8503
31.8862
23.3995
17.5388
13.3375
10.2584
7.97975
6.29705
5.06634
4.18245
3.55725
3.12198
2.82612
2.62993
2.50715
2.44182
2.42905
2.47472
2.58559
2.75176
2.93051
3.06578
3.15701
3.21536
3.22173
3.16143
3.0682
3.02256
3.03824
3.07668
3.10388
3.11412
3.11239
3.10171
3.07499
3.03691
3.02335
3.07339
3.16421
3.22131
3.21496
3.15543
3.0622
2.92462
2.7455
2.58168
2.4735
2.42993
2.44357
2.50898
2.63081
2.82511
3.11874
3.55189
4.17558
5.05846
6.28824
7.97022
10.2493
13.3298
17.5336
23.3975
31.8874
44.8545
66.0025
103.094
173.45
319.742
666.244
1672.85
5810.43
38190.2
38190.2
5810.45
1672.88
666.285
319.784
173.497
103.159
66.1061
45.0166
32.1212
23.7
17.884
13.6961
10.5981
8.27219
6.51661
5.19913
4.22182
3.50871
2.99621
2.62834
2.36624
2.18453
2.06659
2.00644
2.00491
2.07182
2.20796
2.38177
2.5319
2.63796
2.7032
2.71492
2.66306
2.57295
2.51923
2.52454
2.55711
2.5835
2.59388
2.59236
2.58088
2.555
2.52288
2.52016
2.57827
2.66647
2.7155
2.70271
2.63534
2.52805
2.37582
2.20246
2.06867
2.00421
2.00727
2.06765
2.18489
2.36492
2.6245
2.98972
3.49918
4.21069
5.18752
6.5039
8.25938
10.587
13.6879
17.8795
23.6998
32.1254
45.0242
66.1156
103.169
173.505
319.79
666.288
1672.88
5810.45
38190.2
38190.2
5810.48
1672.9
666.283
319.754
173.441
103.094
66.0544
45.0074
32.1786
23.8341
18.0889
13.9542
10.8865
8.56645
6.79342
5.43194
4.39096
3.60271
3.01426
2.57893
2.25607
2.01481
1.84164
1.73054
1.68094
1.69954
1.79341
1.94617
2.10092
2.21548
2.28679
2.30427
2.26024
2.17574
2.11767
2.1139
2.14051
2.16505
2.17487
2.17432
2.16215
2.13782
2.11198
2.11872
2.18118
2.26413
2.30572
2.28645
2.21358
2.09639
1.9405
1.78891
1.69744
1.6809
1.73163
1.84271
2.01462
2.25381
2.5738
3.00609
3.59193
4.37896
5.41889
6.7796
8.55464
10.8765
13.9477
18.0869
23.8368
32.1859
45.018
66.0665
103.105
173.45
319.761
666.286
1672.9
5810.48
38190.2
38190.2
5810.49
1672.89
666.25
319.679
173.322
102.947
65.9039
44.8835
32.1051
23.8238
18.1479
14.0779
11.0631
8.78203
7.03092
5.67218
4.61097
3.78098
3.13547
2.63501
2.24922
1.95315
1.7262
1.56385
1.46694
1.4385
1.48608
1.60451
1.75054
1.86877
1.94427
1.96648
1.92953
1.85216
1.79264
1.78188
1.80259
1.82486
1.83351
1.83343
1.82152
1.7992
1.7796
1.79364
1.85775
1.93381
1.96909
1.94467
1.86723
1.74612
1.59992
1.48283
1.4375
1.46784
1.56586
1.72798
1.95326
2.24678
2.62917
3.12622
3.76936
4.59728
5.65638
7.01437
8.76764
11.053
14.0722
18.1472
23.8277
32.1131
44.8949
65.9166
102.96
173.332
319.685
666.253
1672.89
5810.49
38190.2
38190.2
5810.49
1672.88
666.206
319.591
173.187
102.778
65.7171
44.7055
31.9587
23.7262
18.1071
14.0954
11.1355
8.90128
7.1863
5.85422
4.80516
3.96866
3.29544
2.7508
2.31142
1.95992
1.68431
1.47433
1.33182
1.26056
1.26338
1.34129
1.46573
1.58135
1.65852
1.68355
1.65271
1.58339
1.52527
1.50956
1.5248
1.54402
1.55187
1.55137
1.5403
1.52052
1.50692
1.52619
1.58862
1.65731
1.68756
1.66023
1.58087
1.46208
1.33764
1.2614
1.26079
1.33396
1.47768
1.68743
1.96141
2.31033
2.74647
3.28763
3.95929
4.79454
5.84323
7.17627
8.89196
11.1289
14.0917
18.1071
23.73
31.9656
44.7144
65.7271
102.787
173.195
319.595
666.208
1672.88
5810.49
38190.2
38190.2
5810.49
1672.87
666.166
319.512
173.066
102.624
65.5446
44.5362
31.81
23.6116
18.0379
14.0779
11.168
8.97633
7.29519
5.98624
4.95232
4.12146
3.44038
2.87395
2.39902
2.00397
1.68375
1.43372
1.25136
1.14087
1.10431
1.14117
1.23521
1.33966
1.41457
1.44059
1.41509
1.3546
1.30061
1.28208
1.29266
1.30861
1.31507
1.31376
1.30401
1.28734
1.2791
1.30137
1.35964
1.4203
1.44645
1.41792
1.33997
1.23286
1.13879
1.1036
1.14219
1.25483
1.43854
1.68882
2.00805
2.4007
2.87238
3.43614
4.11445
4.94343
5.97615
7.28533
8.96707
11.1601
14.0722
18.0348
23.6108
31.8111
44.5386
65.5476
102.626
173.068
319.513
666.166
1672.87
5810.49
38190.2
38190.2
5810.5
1672.86
666.142
319.46
172.984
102.518
65.4273
44.4253
31.7173
23.5473
18.0087
14.0853
11.2088
9.04379
7.38011
6.08038
5.04991
4.21893
3.53349
2.9575
2.46631
2.04839
1.70014
1.41932
1.20556
1.06112
0.990719
0.989859
1.04964
1.13396
1.20214
1.22699
1.20618
1.15507
1.1078
1.0887
1.09536
1.10723
1.11328
1.11122
1.10278
1.08893
1.08525
1.10843
1.16015
1.21238
1.23464
1.20712
1.13539
1.04851
0.98878
0.991111
1.06349
1.21009
1.42555
1.70713
2.05594
2.47214
2.96131
3.53617
4.21961
5.04948
6.07989
7.37789
9.04034
11.2038
14.079
18.0014
23.539
31.7081
44.4155
65.4173
102.509
172.977
319.455
666.139
1672.86
5810.5
38190.2
38190.2
5810.5
1672.87
666.152
319.474
173.003
102.542
65.4541
44.4502
31.7394
23.5681
18.0306
14.1102
11.2365
9.07303
7.41016
6.11053
5.07626
4.2414
3.5549
2.97942
2.48897
2.06837
1.71042
1.41411
1.179
1.00836
0.907811
0.875702
0.901404
0.960839
1.01558
1.03737
1.02178
0.980001
0.940784
0.923007
0.926246
0.934687
0.939285
0.938266
0.929925
0.919516
0.919112
0.941367
0.985109
1.02855
1.04688
1.02206
0.963435
0.901677
0.87581
0.909091
1.01137
1.18402
1.42077
1.71824
2.0778
2.49879
2.98915
3.56348
4.24891
5.08293
6.11659
7.41548
9.07604
11.2357
14.105
18.0208
23.5531
31.7193
44.4258
65.4275
102.518
172.984
319.461
666.145
1672.87
5810.5
38190.2
38190.2
5810.49
1672.89
666.218
319.609
173.211
102.801
65.7289
44.6937
31.9223
23.6767
18.0672
14.0873
11.1725
8.98555
7.31218
6.01036
4.98215
4.15771
3.48561
2.9284
2.45814
2.0545
1.7052
1.40684
1.16121
0.972653
0.847222
0.788883
0.784853
0.818934
0.860658
0.878304
0.866891
0.832647
0.800525
0.785323
0.786332
0.792815
0.79717
0.795579
0.788064
0.779848
0.781221
0.801155
0.837709
0.87333
0.887891
0.867757
0.822091
0.786546
0.789973
0.849024
0.976077
1.16625
1.41345
1.71296
2.06389
2.46862
2.9396
3.49708
4.16929
4.99369
6.02204
7.3226
8.99396
11.1772
14.0864
18.0587
23.659
31.8953
44.6594
65.6914
102.766
173.183
319.591
666.209
1672.89
5810.5
38190.2
38190.2
5810.48
1672.92
666.331
319.844
173.57
103.242
66.1912
45.1013
32.222
23.8467
18.1109
14.0261
11.036
8.80391
7.11104
5.81099
4.7978
3.99685
3.35373
2.82791
2.38957
2.01425
1.68546
1.39588
1.14791
0.94897
0.804899
0.723875
0.697533
0.708414
0.735792
0.750186
0.740967
0.71411
0.688367
0.675383
0.675123
0.679798
0.683431
0.680982
0.674754
0.668413
0.671244
0.688711
0.718423
0.745924
0.758751
0.742371
0.712279
0.700231
0.725674
0.80681
0.950931
1.1513
1.40023
1.69108
2.02135
2.39778
2.83671
3.36179
4.0049
4.80685
5.82017
7.11887
8.80892
11.0386
14.0241
18.1024
23.8313
32.1986
45.0716
66.1581
103.211
173.545
319.827
666.322
1672.91
5810.48
38190.2
38190.2
5810.47
1672.95
666.437
320.058
173.892
103.632
66.5987
45.4655
32.5019
24.0246
18.1866
14.0118
10.9507
8.66984
6.94847
5.6373
4.62856
3.84324
3.22383
2.72721
2.31803
1.96975
1.66229
1.38408
1.13864
0.933436
0.777605
0.680952
0.638465
0.633058
0.647315
0.655633
0.647103
0.626801
0.606832
0.595721
0.59475
0.596911
0.598731
0.597506
0.592725
0.588472
0.592568
0.606985
0.630589
0.650879
0.661522
0.653031
0.63692
0.641315
0.682712
0.779657
0.93474
1.14022
1.38585
1.66471
1.97399
2.32344
2.73362
3.23134
3.85091
4.63603
5.64404
6.95366
8.67135
10.9501
14.0074
18.1789
24.0139
32.4878
45.4486
66.5803
103.614
173.877
320.048
666.432
1672.95
5810.47
38190.2
38190.2
5810.47
1672.97
666.495
320.168
174.054
103.827
66.8044
45.6547
32.6573
24.1383
18.2559
14.0388
10.9404
8.62798
6.88454
5.55957
4.5455
3.76297
3.1528
2.6694
2.27639
1.94372
1.64871
1.3779
1.1342
0.926919
0.765216
0.659857
0.608573
0.595302
0.601874
0.60691
0.598386
0.581714
0.565434
0.555115
0.553267
0.553653
0.554305
0.555355
0.551152
0.547695
0.552266
0.565428
0.584487
0.600433
0.608371
0.604775
0.597691
0.610767
0.661411
0.766172
0.926358
1.13359
1.37753
1.64783
1.94406
2.2776
2.67125
3.15497
3.76543
4.54814
5.56227
6.88695
8.62986
10.9414
14.0389
18.2549
24.1359
32.6537
45.6504
66.7996
103.822
174.05
320.166
666.493
1672.97
5810.47
38190.2
38190.2
5810.47
1672.97
666.491
320.161
174.044
103.815
66.7917
45.6427
32.6466
24.1298
18.2496
14.0352
10.939
8.62876
6.88697
5.56337
4.55013
3.76793
3.15777
2.67427
2.28101
1.94804
1.65222
1.38087
1.13543
0.927266
0.765985
0.660276
0.608942
0.59606
0.603785
0.608495
0.599722
0.582141
0.565752
0.554756
0.552569
0.554307
0.555447
0.556878
0.551994
0.548605
0.552565
0.56539
0.583233
0.599052
0.606072
0.602309
0.597107
0.610673
0.66126
0.765128
0.925328
1.13259
1.37681
1.64763
1.94401
2.27788
2.67167
3.15576
3.76643
4.54957
5.56444
6.88995
8.63365
10.9456
14.0429
18.2583
24.1387
32.6557
45.6519
66.8005
103.823
174.05
320.166
666.493
1672.97
5810.47
38190.2
38190.2
5810.47
1672.94
666.425
320.036
173.86
103.593
66.5585
45.4286
32.4716
24.0032
18.1742
14.0078
10.9543
8.67871
6.96155
5.65303
4.64474
3.8594
3.23957
2.74158
2.33108
1.98112
1.67108
1.39122
1.14287
0.936782
0.78033
0.681934
0.63979
0.635136
0.651069
0.659698
0.65049
0.628792
0.607927
0.595656
0.595152
0.599071
0.601171
0.602298
0.597297
0.591996
0.594822
0.607132
0.627925
0.6478
0.654378
0.647662
0.635089
0.64069
0.682445
0.7783
0.933093
1.13863
1.38526
1.66446
1.97424
2.32381
2.73381
3.23157
3.85149
4.63747
5.64694
6.95793
8.67781
10.9571
14.0151
18.1866
24.0212
32.4945
45.4555
66.5873
103.62
173.882
320.051
666.433
1672.95
5810.47
38190.2
38190.2
5810.48
1672.91
666.313
319.811
173.522
103.183
66.1294
45.0457
32.1779
23.8174
18.0962
14.0247
11.0455
8.82065
7.1323
5.83284
4.8193
4.01814
3.37468
2.84822
2.40806
2.03026
1.69857
1.40661
1.15548
0.953979
0.8079
0.725641
0.69888
0.710727
0.740336
0.755215
0.745385
0.71779
0.689554
0.675467
0.67551
0.682188
0.686599
0.689652
0.683099
0.674452
0.674603
0.688173
0.71429
0.741203
0.749147
0.736737
0.710689
0.699852
0.725854
0.806224
0.949499
1.14948
1.39877
1.69011
2.02043
2.39699
2.83604
3.36118
4.0034
4.80343
5.81624
7.11631
8.80686
11.0368
14.0245
18.1063
23.8397
32.2121
45.0894
66.178
103.229
173.559
319.836
666.325
1672.91
5810.48
38190.2
38190.2
5810.49
1672.88
666.202
319.578
173.164
102.743
65.6667
44.6366
31.8771
23.6463
18.0517
14.0849
11.1802
8.99936
7.32998
6.02983
5.00177
4.17792
3.5051
2.94737
2.47646
2.07088
1.71959
1.41872
1.17025
0.97895
0.850777
0.790318
0.785764
0.819786
0.86305
0.882765
0.872014
0.836765
0.802473
0.786275
0.787729
0.795571
0.802575
0.805266
0.797131
0.787897
0.785378
0.800847
0.833176
0.866025
0.876816
0.861242
0.82148
0.786787
0.790904
0.848983
0.97424
1.16348
1.41003
1.70935
2.06027
2.46501
2.93549
3.49225
4.16402
4.98724
6.01477
7.31547
8.98705
11.1721
14.0842
18.061
23.6676
31.91
44.6798
65.7143
102.788
173.2
319.602
666.213
1672.89
5810.49
38190.2
38190.2
5810.5
1672.87
666.142
319.455
172.974
102.506
65.4135
44.4129
31.7087
23.5451
18.0152
14.1014
11.2337
9.07416
7.41393
6.11391
5.07984
4.24677
3.5634
2.98914
2.50038
2.08072
1.72217
1.42428
1.18697
1.01355
0.910487
0.876431
0.90094
0.961346
1.01715
1.04151
1.02734
0.9849
0.942572
0.923776
0.927537
0.937719
0.946228
0.948239
0.940195
0.928033
0.923955
0.940908
0.979521
1.02007
1.03627
1.01646
0.963183
0.903608
0.877522
0.909406
1.00998
1.18109
1.41669
1.7133
2.07172
2.49253
2.9824
3.5573
4.24302
5.07702
6.11017
7.41186
9.07537
11.237
14.1084
18.0261
23.5602
31.7275
44.435
65.4369
102.527
172.991
319.467
666.149
1672.87
5810.5
38190.2
38190.2
5810.5
1672.86
666.14
319.455
172.976
102.508
65.4151
44.414
31.7074
23.5385
18.0003
14.0763
11.199
9.03319
7.36956
6.07058
5.04132
4.21172
3.5295
2.95733
2.46965
2.05451
1.70782
1.42689
1.21173
1.06511
0.992329
0.989453
1.048
1.13353
1.20318
1.23034
1.21194
1.16082
1.11
1.08936
1.09644
1.11026
1.11949
1.12099
1.11259
1.09783
1.0902
1.10839
1.15442
1.20444
1.22636
1.20243
1.13684
1.05194
0.991876
0.992364
1.0626
1.2071
1.42092
1.7015
2.04914
2.46589
2.95614
3.53275
4.21781
5.04982
6.08215
7.38389
9.04862
11.2138
14.0892
18.0103
23.5452
31.7107
44.4147
65.4139
102.506
172.974
319.455
666.141
1672.86
5810.5
38190.2
38190.2
5810.49
1672.87
666.168
319.515
173.071
102.63
65.552
44.5436
31.8163
23.6152
18.0378
14.073
11.1586
8.96301
7.27882
5.96721
4.93333
4.1037
3.42606
2.86336
2.39328
2.00311
1.68633
1.43798
1.2554
1.14331
1.10471
1.1394
1.23191
1.33797
1.41518
1.44382
1.42003
1.35986
1.30256
1.28231
1.29327
1.31028
1.31998
1.32118
1.31258
1.29536
1.28358
1.30109
1.35342
1.41319
1.43992
1.41531
1.34188
1.23709
1.14287
1.10587
1.14209
1.2523
1.43411
1.68309
2.00178
2.39479
2.86821
3.43441
4.11518
4.94709
5.98234
7.29319
8.97659
11.1703
14.0815
18.0415
23.6139
31.8104
44.5344
65.5413
102.62
173.063
319.51
666.166
1672.87
5810.49
38190.2
38190.2
5810.49
1672.88
666.209
319.598
173.199
102.793
65.7341
44.7219
31.9724
23.7357
18.1112
14.0935
11.1281
8.88885
7.16997
5.83389
4.78445
3.94755
3.27685
2.7362
2.30207
1.95535
1.68379
1.4761
1.33408
1.26176
1.2626
1.33818
1.4618
1.57931
1.65831
1.68568
1.65674
1.58764
1.52692
1.50919
1.52487
1.54551
1.55574
1.55585
1.54729
1.5272
1.51112
1.52567
1.58201
1.65082
1.6825
1.65939
1.58378
1.46765
1.34325
1.26506
1.26181
1.33247
1.47412
1.68293
1.95667
2.30636
2.74423
3.28811
3.96121
4.79916
5.84906
7.18303
8.89898
11.1357
14.097
18.11
23.7303
31.9634
44.7099
65.7213
102.781
173.19
319.592
666.206
1672.88
5810.49
38190.2
38190.2
5810.49
1672.89
666.254
319.688
173.336
102.965
65.9231
44.9013
32.1194
23.8332
18.1516
14.0755
11.0544
8.76784
7.01184
5.65106
4.58979
3.76061
3.11702
2.62048
2.23915
1.94754
1.72436
1.56432
1.46807
1.4388
1.4844
1.60051
1.74596
1.86649
1.94356
1.96785
1.93274
1.85596
1.79398
1.78105
1.80201
1.82549
1.83663
1.83634
1.82698
1.80457
1.78348
1.79301
1.85081
1.92774
1.96503
1.94505
1.87133
1.75293
1.60673
1.48806
1.44
1.46767
1.56369
1.72476
1.95012
2.24451
2.62922
3.12924
3.77489
4.604
5.66394
7.02366
8.77732
11.061
14.0778
18.1497
23.8272
32.1102
44.8898
65.9107
102.954
173.327
319.681
666.25
1672.89
5810.49
38190.2
38190.2
5810.48
1672.9
666.286
319.762
173.453
103.109
66.0706
45.0223
32.1904
23.8411
18.0911
13.9515
10.8793
8.55539
6.77811
5.41429
4.37225
3.58613
2.99974
2.56697
2.24746
2.01002
1.84009
1.73089
1.68188
1.69941
1.79104
1.94087
2.0958
2.21234
2.2858
2.3057
2.2627
2.17953
2.11882
2.11269
2.13922
2.16517
2.17626
2.17549
2.16617
2.14204
2.11531
2.11811
2.17431
2.25812
2.30253
2.2874
2.21693
2.10322
1.94758
1.79576
1.70155
1.68211
1.73077
1.8406
2.01232
2.25228
2.57458
3.00959
3.59748
4.38556
5.42655
6.78968
8.56462
10.8862
13.9552
18.0913
23.8378
32.1841
45.0139
66.061
103.1
173.446
319.757
666.284
1672.9
5810.48
38190.2
38190.2
5810.45
1672.88
666.288
319.79
173.506
103.171
66.1182
45.0273
32.1293
23.7048
17.8853
13.6942
10.5934
8.26457
6.50668
5.18613
4.20799
3.49586
2.98526
2.61964
2.36072
2.18211
2.06667
2.00779
2.00638
2.07153
2.20494
2.37614
2.52791
2.6345
2.70217
2.71652
2.66485
2.57631
2.52014
2.52298
2.55561
2.58281
2.59371
2.59282
2.58345
2.55815
2.52593
2.5197
2.57173
2.6608
2.71402
2.70407
2.63831
2.5338
2.38309
2.21076
2.07432
2.00672
2.00739
2.06628
2.18296
2.36352
2.62478
2.99213
3.50443
4.21812
5.19633
6.51607
8.27232
10.5994
13.6982
17.887
23.7038
32.1261
45.0219
66.1116
103.164
173.501
319.787
666.286
1672.88
5810.45
38190.2
38190.2
5810.43
1672.85
666.244
319.742
173.451
103.095
66.005
44.858
31.8922
23.4037
17.5407
13.3371
10.2558
7.97527
6.29078
5.05848
4.17429
3.54954
3.11589
2.8224
2.62868
2.50835
2.44475
2.43218
2.47725
2.58537
2.74824
2.92479
3.06203
3.15423
3.21459
3.22233
3.16264
3.0706
3.02266
3.03665
3.0752
3.10257
3.11296
3.11228
3.10296
3.07736
3.03958
3.02245
3.06709
3.15869
3.2211
3.21643
3.15821
3.06679
2.93156
2.75455
2.5886
2.47741
2.43101
2.4426
2.50692
2.6288
2.82423
3.11949
3.55469
4.18047
5.0654
6.29755
7.981
10.2607
13.3406
17.5426
23.4038
31.8907
44.8552
66.0013
103.092
173.448
319.74
666.243
1672.85
5810.43
38190.2
38190.2
5810.4
1672.78
666.135
319.585
173.243
102.834
65.6892
44.4911
31.482
22.9713
17.1213
12.9687
9.97371
7.80081
6.22961
5.11131
4.32928
3.79804
3.44946
3.23117
3.10235
3.0361
3.01688
3.04689
3.13163
3.26975
3.44546
3.6125
3.72719
3.80076
3.85176
3.85284
3.78588
3.69548
3.65985
3.68635
3.72974
3.75651
3.76551
3.76514
3.75664
3.73186
3.68947
3.65987
3.69295
3.78329
3.85375
3.85336
3.80506
3.73113
3.61872
3.45182
3.27329
3.13179
3.04516
3.01351
3.03189
3.09957
3.22973
3.45002
3.79981
4.33227
5.11496
6.23347
7.80436
9.97649
12.9705
17.122
22.971
31.4807
44.4891
65.6869
102.832
173.241
319.584
666.134
1672.78
5810.4
38190.2
38190.2
5810.36
1672.69
665.961
319.315
172.874
102.383
65.1779
43.9554
30.957
22.4964
16.7384
12.7168
9.86385
7.83374
6.40145
5.40518
4.73396
4.30301
4.044
3.90131
3.83351
3.81442
3.83465
3.89764
4.00606
4.1568
4.3302
4.47711
4.56451
4.61597
4.65432
4.64907
4.57719
4.49449
4.47674
4.51618
4.56274
4.58819
4.59558
4.5953
4.58806
4.56485
4.51905
4.47711
4.49314
4.57634
4.65056
4.65501
4.61872
4.56772
4.48273
4.33634
4.16065
4.00626
3.89487
3.82985
3.80766
3.82769
3.8968
4.04169
4.30229
4.73469
5.40658
6.40317
7.83535
9.86485
12.717
16.7377
22.495
30.9552
43.9536
65.1762
102.382
172.873
319.315
665.961
1672.69
5810.36
38190.2
38190.2
5810.32
1672.58
665.752
318.97
172.39
101.793
64.5344
43.3321
30.4182
22.0941
16.5138
12.6787
10.0136
8.15563
6.86959
6.00329
5.44851
5.12324
4.95665
4.88913
4.87921
4.9015
4.94955
5.02745
5.14258
5.29225
5.45349
5.575
5.63166
5.65669
5.67847
5.66628
5.59488
5.52861
5.53385
5.58651
5.63499
5.6577
5.66323
5.66275
5.65735
5.63657
5.58889
5.53466
5.52854
5.59647
5.66822
5.67903
5.65694
5.63375
5.5797
5.45953
5.29655
5.14326
5.02451
4.94393
4.89351
4.87112
4.88185
4.95231
5.12106
5.44821
6.00401
6.87064
8.15659
10.0139
12.678
16.5123
22.0919
30.4158
43.33
64.5326
101.792
172.388
318.969
665.752
1672.58
5810.32
38190.2
38190.2
5810.3
1672.5
665.554
318.614
171.867
101.149
63.8392
42.709
29.9536
21.846
16.5083
12.921
10.4813
8.81467
7.69053
6.96206
6.53445
6.32349
6.25415
6.26395
6.30752
6.35571
6.41352
6.4937
6.60664
6.74889
6.8933
6.98711
7.01034
7.00485
7.00546
6.98396
6.92139
6.88277
6.9158
6.98194
7.03023
7.04931
7.05261
7.05215
7.04872
7.03134
6.98383
6.91711
6.8839
6.92421
6.98646
7.00477
7.00348
7.01119
6.99086
6.89942
6.7538
6.60832
6.49154
6.40811
6.34782
6.29816
6.2567
6.24973
6.32106
6.53413
6.9633
7.6921
8.816
10.4817
12.9205
16.5069
21.8438
29.9511
42.7066
63.8371
101.147
171.866