/*--------------------------------*- C++ -*----------------------------------*\
| =========                 |                                                 |
| \\      /  F ield         | OpenFOAM: The Open Source CFD Toolbox           |
|  \\    /   O peration     | Version:  2212                                  |
|   \\  /    A nd           | Website:  www.openfoam.com                      |
|    \\/     M anipulation  |                                                 |
\*---------------------------------------------------------------------------*/
FoamFile
{
    version     2.0;
    format      ascii;
    arch        "LSB;label=32;scalar=64";
    class       volScalarField;
    location    "6000";
    object      p;
}
// * * * * * * * * * * * * * * * * * * * * * * * * * * * * * * * * * * * * * //

dimensions      [0 2 -2 0 0 0 0];

internalField   nonuniform List<scalar> 
4800
(
-1.16481e-06
-1.38446e-06
-1.33325e-06
-1.02942e-06
-5.6374e-07
-1.47119e-07
1.32071e-07
1.12768e-07
-2.40853e-07
-7.18165e-07
-6.55323e-07
1.10414e-06
5.61203e-06
1.23792e-05
1.77729e-05
1.42531e-05
-6.99913e-06
-5.16244e-05
-0.00011901
-0.000204134
-0.00030034
-0.000405825
-0.000524716
-0.000671799
-0.000866239
-0.00112546
-0.00145378
-0.00183506
-0.00222635
-0.00259998
-0.00297591
-0.00333675
-0.00358139
-0.00354887
-0.00329238
-0.0030777
-0.00304487
-0.00311171
-0.00317398
-0.00319741
-0.0031963
-0.00317243
-0.00311197
-0.0030449
-0.00307247
-0.0032812
-0.00354784
-0.00359261
-0.00334594
-0.00297639
-0.00259584
-0.002221
-0.00182979
-0.00144954
-0.00112337
-0.000867032
-0.000675445
-0.000530518
-0.000412976
-0.000308036
-0.000211601
-0.000125887
-5.77306e-05
-1.23218e-05
9.60451e-06
1.36419e-05
8.6095e-06
2.07193e-06
-2.30587e-06
-4.00656e-06
-4.05777e-06
-3.59811e-06
-3.27634e-06
-3.29725e-06
-3.61221e-06
-4.08046e-06
-4.55809e-06
-4.93875e-06
-5.16412e-06
-5.22113e-06
-1.54729e-06
-1.57094e-06
-1.48088e-06
-1.22805e-06
-8.59137e-07
-5.15344e-07
-2.81662e-07
-2.96088e-07
-5.98027e-07
-1.0138e-06
-9.66897e-07
5.75548e-07
4.58184e-06
1.06262e-05
1.53296e-05
1.14862e-05
-9.55026e-06
-5.35539e-05
-0.000120236
-0.00020486
-0.000300884
-0.000406443
-0.000525515
-0.000672723
-0.000867126
-0.00112612
-0.00145407
-0.00183494
-0.00222598
-0.00259954
-0.00297535
-0.00333597
-0.00358051
-0.0035483
-0.00329229
-0.00307786
-0.00304494
-0.00311164
-0.00317385
-0.00319728
-0.00319618
-0.00317231
-0.00311191
-0.00304498
-0.00307263
-0.00328113
-0.00354727
-0.00359171
-0.00334513
-0.00297583
-0.00259541
-0.00222065
-0.00182969
-0.00144984
-0.00112405
-0.000867924
-0.000676363
-0.000531301
-0.000413569
-0.000308551
-0.000212299
-0.000127091
-5.96484e-05
-1.48719e-05
6.82835e-06
1.11809e-05
6.83281e-06
1.01448e-06
-2.86301e-06
-4.34597e-06
-4.37888e-06
-3.97717e-06
-3.70274e-06
-3.72332e-06
-3.98832e-06
-4.37346e-06
-4.75883e-06
-5.06321e-06
-5.24521e-06
-5.30974e-06
-2.02617e-06
-1.9086e-06
-1.72133e-06
-1.47342e-06
-1.15459e-06
-8.65909e-07
-6.7973e-07
-7.11282e-07
-1.00026e-06
-1.40337e-06
-1.41936e-06
-1.23765e-07
3.37389e-06
8.70373e-06
1.27269e-05
8.56224e-06
-1.22591e-05
-5.56329e-05
-0.000121592
-0.000205697
-0.000301529
-0.000407164
-0.000526424
-0.000673762
-0.000868122
-0.00112688
-0.00145441
-0.00183484
-0.00222561
-0.00259907
-0.00297475
-0.00333512
-0.00357956
-0.00354769
-0.00329222
-0.00307804
-0.00304505
-0.0031116
-0.00317374
-0.00319716
-0.00319606
-0.0031722
-0.00311186
-0.00304508
-0.00307283
-0.00328108
-0.00354666
-0.00359074
-0.00334425
-0.00297522
-0.00259495
-0.00222028
-0.00182961
-0.0014502
-0.00112481
-0.000868925
-0.000677395
-0.000532193
-0.000414264
-0.000309165
-0.000213107
-0.000128426
-6.17152e-05
-1.75797e-05
3.89475e-06
8.55984e-06
4.88578e-06
-2.2163e-07
-3.59175e-06
-4.82703e-06
-4.79456e-06
-4.40184e-06
-4.13623e-06
-4.13509e-06
-4.34897e-06
-4.67072e-06
-5.00243e-06
-5.28215e-06
-5.47993e-06
-5.60767e-06
-2.54614e-06
-2.31796e-06
-2.06333e-06
-1.77734e-06
-1.46823e-06
-1.20811e-06
-1.0677e-06
-1.14356e-06
-1.47435e-06
-1.93791e-06
-2.08842e-06
-1.08359e-06
1.90095e-06
6.54081e-06
9.9117e-06
5.43534e-06
-1.51771e-05
-5.79238e-05
-0.000123149
-0.000206718
-0.000302349
-0.00040806
-0.000527512
-0.000674979
-0.000869285
-0.00112777
-0.00145486
-0.0018348
-0.00222524
-0.00259858
-0.00297411
-0.00333422
-0.00357856
-0.00354707
-0.00329217
-0.00307828
-0.00304521
-0.00311159
-0.00317365
-0.00319708
-0.00319598
-0.00317212
-0.00311185
-0.00304523
-0.00307307
-0.00328106
-0.00354604
-0.00358971
-0.00334333
-0.00297459
-0.00259447
-0.00221994
-0.00182958
-0.00145066
-0.00112572
-0.000870093
-0.000678604
-0.000533262
-0.000415131
-0.000309952
-0.000214098
-0.00012996
-6.39931e-05
-2.04965e-05
7.58057e-07
5.72588e-06
2.69767e-06
-1.72352e-06
-4.58178e-06
-5.52537e-06
-5.3558e-06
-4.89885e-06
-4.58713e-06
-4.53627e-06
-4.69911e-06
-4.98189e-06
-5.30165e-06
-5.60597e-06
-5.86919e-06
-6.10179e-06
-3.13104e-06
-2.77254e-06
-2.41554e-06
-2.06464e-06
-1.7387e-06
-1.49804e-06
-1.41556e-06
-1.58002e-06
-2.03119e-06
-2.65763e-06
-3.03903e-06
-2.3712e-06
1.31323e-07
4.18673e-06
7.05177e-06
2.40921e-06
-1.78671e-05
-5.98664e-05
-0.000124231
-0.000207132
-0.000302418
-0.00040804
-0.000527499
-0.000674898
-0.000868977
-0.00112708
-0.00145368
-0.00183317
-0.00222337
-0.00259667
-0.00297218
-0.00333212
-0.00357637
-0.00354509
-0.00329049
-0.0030766
-0.00304333
-0.00310953
-0.00317154
-0.00319496
-0.00319386
-0.00316999
-0.00310978
-0.00304334
-0.0030714
-0.0032794
-0.00354408
-0.0035875
-0.0033412
-0.00297265
-0.00259257
-0.00221807
-0.00182796
-0.0014495
-0.00112504
-0.000869789
-0.00067852
-0.000533235
-0.000415088
-0.000309992
-0.000214484
-0.000131021
-6.59248e-05
-2.31865e-05
-2.27854e-06
2.84689e-06
3.18309e-07
-3.52209e-06
-5.8995e-06
-6.50506e-06
-6.10208e-06
-5.47868e-06
-5.04302e-06
-4.9001e-06
-5.00396e-06
-5.26661e-06
-5.60994e-06
-5.98026e-06
-6.34879e-06
-6.71791e-06
-3.70452e-06
-3.19042e-06
-2.70304e-06
-2.25534e-06
-1.88369e-06
-1.65606e-06
-1.65663e-06
-1.97673e-06
-2.65483e-06
-3.56491e-06
-4.24115e-06
-3.80569e-06
-1.41282e-06
2.70943e-06
5.96638e-06
2.18275e-06
-1.67548e-05
-5.71025e-05
-0.00011978
-0.000201134
-0.000295035
-0.000399344
-0.000517451
-0.000663492
-0.000856322
-0.00111346
-0.00143958
-0.00181906
-0.00220969
-0.00258375
-0.00296018
-0.00332077
-0.00356495
-0.00353253
-0.00327596
-0.00306032
-0.0030261
-0.00309207
-0.00315408
-0.00317749
-0.00317636
-0.00315247
-0.00309224
-0.00302604
-0.00305507
-0.00326491
-0.0035316
-0.00357614
-0.00332989
-0.00296065
-0.00257962
-0.00220434
-0.0018138
-0.00143536
-0.00111141
-0.000857138
-0.000667129
-0.000523209
-0.000406409
-0.000302618
-0.000208491
-0.000126571
-6.31648e-05
-2.20832e-05
-2.51981e-06
1.74103e-06
-1.18385e-06
-5.09395e-06
-7.36239e-06
-7.73435e-06
-7.03408e-06
-6.12387e-06
-5.45817e-06
-5.15651e-06
-5.17531e-06
-5.42212e-06
-5.81011e-06
-6.27293e-06
-6.77196e-06
-7.2969e-06
-3.90304e-06
-3.23145e-06
-2.61181e-06
-2.07258e-06
-1.66727e-06
-1.48495e-06
-1.63215e-06
-2.20773e-06
-3.21033e-06
-4.38621e-06
-5.02953e-06
-3.91191e-06
1.07437e-07
7.11734e-06
1.44874e-05
1.56585e-05
1.99115e-06
-3.32609e-05
-9.12241e-05
-0.000168004
-0.000257163
-0.00035634
-0.000469014
-0.000609868
-0.000798468
-0.00105302
-0.00137867
-0.00175943
-0.00215249
-0.00252962
-0.00290975
-0.00327332
-0.00351728
-0.00347957
-0.00321447
-0.00299195
-0.00295461
-0.00302015
-0.00308234
-0.00310568
-0.00310444
-0.00308048
-0.00302005
-0.00295429
-0.00298653
-0.00320349
-0.00347889
-0.00352879
-0.00328266
-0.00291025
-0.00252535
-0.00214695
-0.00175396
-0.00137428
-0.00105087
-0.000799279
-0.00061357
-0.000474891
-0.000363538
-0.000264871
-0.000175463
-9.80863e-05
-3.93746e-05
-3.37503e-06
1.09259e-05
1.02352e-05
3.19778e-06
-3.59943e-06
-7.49371e-06
-8.54599e-06
-7.87626e-06
-6.6978e-06
-5.70586e-06
-5.14786e-06
-5.0209e-06
-5.22421e-06
-5.64937e-06
-6.20702e-06
-6.84282e-06
-7.52974e-06
-3.16564e-06
-2.35671e-06
-1.63075e-06
-1.03677e-06
-6.49855e-07
-5.89219e-07
-9.82689e-07
-1.89876e-06
-3.15789e-06
-4.05912e-06
-3.02373e-06
2.17781e-06
1.34799e-05
3.13945e-05
5.24155e-05
6.83669e-05
6.88473e-05
4.60753e-05
-9.17038e-07
-6.72477e-05
-0.000145449
-0.000232684
-0.000332965
-0.00046228
-0.000641794
-0.000891105
-0.00121619
-0.00160008
-0.00199852
-0.0023823
-0.00277052
-0.00314054
-0.00338356
-0.00333355
-0.00304964
-0.0028123
-0.00276827
-0.00283284
-0.00289537
-0.00291857
-0.00291708
-0.002893
-0.00283216
-0.00276739
-0.00280648
-0.00303881
-0.00333348
-0.00339584
-0.00315041
-0.00277111
-0.00237774
-0.00199256
-0.00159416
-0.00121141
-0.000888739
-0.000642567
-0.000466105
-0.000339095
-0.000240185
-0.000153458
-7.49693e-05
-7.97787e-06
3.98251e-05
6.3393e-05
6.35795e-05
4.81275e-05
2.74478e-05
9.75054e-06
-1.42344e-06
-6.55667e-06
-7.56288e-06
-6.65697e-06
-5.40738e-06
-4.50878e-06
-4.13657e-06
-4.21991e-06
-4.62934e-06
-5.24483e-06
-5.99098e-06
-6.81941e-06
-3.65288e-07
4.97101e-07
1.23594e-06
1.77658e-06
2.01948e-06
1.81572e-06
1.05401e-06
-1.30734e-07
-1.04588e-06
2.16253e-07
7.15598e-06
2.41128e-05
5.44293e-05
9.78719e-05
0.000148141
0.000193397
0.000219939
0.000218849
0.000190314
0.000141366
8.12809e-05
1.334e-05
-6.75602e-05
-0.000179456
-0.000345645
-0.000587419
-0.000911678
-0.00129993
-0.0017058
-0.00209912
-0.00249928
-0.00287838
-0.00311892
-0.0030499
-0.00273862
-0.00248008
-0.00242619
-0.00248896
-0.00255177
-0.00257473
-0.00257289
-0.00254866
-0.00248742
-0.00242444
-0.00247365
-0.00272805
-0.00305081
-0.00313241
-0.0028891
-0.00250003
-0.00209413
-0.00169922
-0.00129332
-0.000906296
-0.000584696
-0.000346319
-0.000183414
-7.40278e-05
5.40891e-06
7.2826e-05
0.000133247
0.000182942
0.000212392
0.000214363
0.000188548
0.000143825
9.39113e-05
5.06892e-05
2.05035e-05
3.61831e-06
-3.28866e-06
-4.54402e-06
-3.63798e-06
-2.47162e-06
-1.73334e-06
-1.55534e-06
-1.82445e-06
-2.39056e-06
-3.15371e-06
-4.03963e-06
6.47747e-06
7.17847e-06
7.71144e-06
7.97656e-06
7.85453e-06
7.19257e-06
6.01597e-06
5.05043e-06
6.35449e-06
1.40637e-05
3.44134e-05
7.41292e-05
0.000137518
0.000222092
0.000316769
0.000404321
0.000467085
0.000495297
0.000491049
0.000464143
0.000426273
0.000380832
0.000321323
0.000227678
7.5009e-05
-0.000159218
-0.000482502
-0.000874967
-0.00128782
-0.00169071
-0.00210322
-0.00249062
-0.00272654
-0.00263695
-0.00229835
-0.00201863
-0.00195418
-0.00201444
-0.00207718
-0.00209984
-0.00209765
-0.0020733
-0.00201196
-0.00195148
-0.00201153
-0.00228815
-0.00263901
-0.00274136
-0.00250226
-0.00210421
-0.00168534
-0.00128063
-0.000867648
-0.000476472
-0.00015608
7.45033e-05
0.000223668
0.000314576
0.000372513
0.000417394
0.000455634
0.000483384
0.00048867
0.000461433
0.000399456
0.000312464
0.000218151
0.000133795
7.05356e-05
3.08933e-05
1.05796e-05
2.87994e-06
1.56805e-06
2.51484e-06
3.66638e-06
4.30017e-06
4.39308e-06
4.09937e-06
3.53884e-06
2.81112e-06
2.03366e-05
2.04677e-05
2.0394e-05
1.99994e-05
1.91631e-05
1.77982e-05
1.63191e-05
1.66595e-05
2.37674e-05
4.54775e-05
8.9906e-05
0.000163063
0.000266744
0.000395192
0.000534589
0.000665896
0.000769743
0.000833904
0.000859317
0.000856881
0.00084053
0.00081395
0.000770143
0.00068862
0.000544152
0.000314176
-8.47029e-06
-0.000403889
-0.00082082
-0.00123009
-0.00165073
-0.00204106
-0.0022698
-0.00216544
-0.00181046
-0.00151693
-0.00144412
-0.00150132
-0.00156337
-0.00158577
-0.00158333
-0.00155894
-0.00149811
-0.00144058
-0.00150925
-0.00180073
-0.00216856
-0.00228557
-0.00205334
-0.00165204
-0.00122457
-0.000813275
-0.00039605
-1.92881e-06
0.00031769
0.00054389
0.00068476
0.000763409
0.000805585
0.000831566
0.000848279
0.000851612
0.000827312
0.000764173
0.000661125
0.00053037
0.000391323
0.000263087
0.00015953
8.64455e-05
4.2056e-05
2.03586e-05
1.32449e-05
1.28864e-05
1.43399e-05
1.56753e-05
1.64809e-05
1.68451e-05
1.68893e-05
1.67297e-05
4.40558e-05
4.30481e-05
4.18169e-05
4.02481e-05
3.82531e-05
3.59412e-05
3.44898e-05
3.81343e-05
5.63312e-05
0.000101635
0.000181951
0.000295628
0.000434012
0.000586086
0.00074209
0.000894191
0.00103172
0.00113935
0.00120693
0.00123692
0.00124202
0.00122765
0.00118972
0.00111053
0.000966753
0.000737402
0.000414335
1.76488e-05
-0.000399914
-0.000810549
-0.00123234
-0.00161747
-0.00183573
-0.00172653
-0.00137212
-0.00107586
-0.000997861
-0.00105119
-0.00111168
-0.00113386
-0.0011313
-0.00110697
-0.0010475
-0.000993675
-0.00106782
-0.00136302
-0.00173045
-0.00185178
-0.00162997
-0.00123407
-0.000805269
-0.000392399
2.57346e-05
0.00042118
0.000741177
0.000966826
0.00110711
0.00118348
0.00121984
0.00123363
0.00122886
0.00119973
0.0011332
0.00102651
0.000889684
0.000738062
0.000582372
0.000430497
0.000292231
0.000178622
9.83459e-05
5.30602e-05
3.48611e-05
3.12002e-05
3.26271e-05
3.49104e-05
3.68751e-05
3.84137e-05
3.96155e-05
4.05945e-05
7.7441e-05
7.47904e-05
7.19167e-05
6.87257e-05
6.52008e-05
6.18243e-05
6.10494e-05
7.05048e-05
0.000105487
0.000183365
0.000308698
0.000464228
0.000621519
0.000760902
0.00088361
0.00100791
0.00114812
0.00129534
0.001422
0.00150745
0.00154749
0.00154743
0.0015107
0.00142741
0.00127989
0.00105015
0.000728193
0.000332053
-8.39448e-05
-0.000490821
-0.000906942
-0.00127704
-0.00148141
-0.00137671
-0.00103899
-0.000750614
-0.000669761
-0.000717757
-0.000775517
-0.000797467
-0.000794902
-0.000770742
-0.000713719
-0.000664989
-0.000742419
-0.00103084
-0.00138126
-0.00149677
-0.00128903
-0.000909245
-0.000486169
-7.6842e-05
0.00034017
0.00073518
0.00105408
0.00128041
0.00142474
0.00150545
0.00154087
0.00154054
0.00150082
0.00141613
0.00129022
0.00114363
0.00100388
0.000879919
0.000757475
0.000618276
0.000461094
0.000305628
0.000180334
0.000102477
6.74943e-05
5.80249e-05
5.87786e-05
6.21298e-05
6.56276e-05
6.87914e-05
7.16384e-05
7.42628e-05
0.000111623
0.000107277
0.000102711
9.78565e-05
9.27926e-05
8.85462e-05
8.928e-05
0.000106903
0.000163188
0.000278789
0.000451868
0.000646257
0.00080771
0.000903402
0.000947728
0.000989271
0.0010766
0.00122672
0.00140729
0.00156774
0.00167175
0.00171193
0.0016929
0.00161266
0.00146484
0.0012366
0.000922375
0.000531409
0.000118412
-0.000280177
-0.000681555
-0.00102673
-0.00121482
-0.00112312
-0.00081442
-0.000542964
-0.000460847
-0.000501689
-0.000555422
-0.000577028
-0.000574493
-0.000550647
-0.000497283
-0.000455443
-0.000534818
-0.000807613
-0.00112819
-0.00122841
-0.00103735
-0.000684416
-0.000276488
0.000124824
0.000539353
0.000929252
0.00124071
0.00146593
0.00161108
0.0016893
0.00170751
0.00166726
0.00156352
0.00140351
0.00122317
0.00107311
0.000985872
0.000944515
0.000900415
0.000804914
0.000643588
0.00044927
0.000276221
0.000160626
0.000104333
8.66959e-05
8.59447e-05
9.01718e-05
9.52151e-05
0.000100049
0.000104594
0.00010892
0.00012607
0.000120653
0.00011501
0.000109085
0.000103052
9.85265e-05
0.000101725
0.000129092
0.000207634
0.00035927
0.000576173
0.000806754
0.000972838
0.00102193
0.000971344
0.000896182
0.00087549
0.000955846
0.00113385
0.00135196
0.00153712
0.00165188
0.00168758
0.00164237
0.00151707
0.00130386
0.00100658
0.000632356
0.000224134
-0.000160076
-0.000533782
-0.000849089
-0.00101895
-0.000947482
-0.000676366
-0.000429853
-0.000348303
-0.000380352
-0.000428773
-0.00044981
-0.000447306
-0.000423998
-0.000375496
-0.000342189
-0.000421976
-0.000671287
-0.000953074
-0.00103071
-0.000858333
-0.000537009
-0.00015767
0.000229656
0.000639854
0.00101299
0.00130812
0.00151878
0.00164219
0.00168628
0.00165034
0.00153583
0.00135069
0.00113235
0.000953779
0.000872918
0.000893422
0.00096867
0.00101953
0.000970742
0.000804861
0.000574361
0.000357457
0.000205787
0.000127211
9.98206e-05
9.66081e-05
0.000101123
0.000107144
0.000113058
0.00011869
0.000124096
9.28954e-05
8.74822e-05
8.18342e-05
7.58913e-05
6.98992e-05
6.59738e-05
7.22907e-05
0.000108961
0.000206347
0.000386827
0.000639048
0.00090473
0.0010931
0.00112958
0.00101068
0.000818227
0.000664804
0.000618989
0.000703009
0.000896423
0.00112663
0.00132179
0.00144018
0.00147197
0.00141181
0.00125018
0.000991038
0.000651459
0.000254589
-0.000106181
-0.000444342
-0.00072705
-0.000877445
-0.00082803
-0.000599927
-0.000385648
-0.000307255
-0.000329487
-0.00037146
-0.000391623
-0.000389143
-0.000366641
-0.000324107
-0.000300382
-0.000378311
-0.000596922
-0.00083413
-0.000887574
-0.000735219
-0.000448053
-0.000105277
0.000259142
0.00065794
0.000996604
0.00125414
0.00141386
0.00147313
0.00144129
0.00132317
0.00112825
0.00089735
0.000702726
0.00061752
0.000662597
0.000815766
0.00100848
0.00112795
0.00109201
0.000903958
0.000638351
0.000386065
0.000205481
0.000108011
7.12983e-05
6.49676e-05
6.88912e-05
7.48844e-05
8.08286e-05
8.64777e-05
9.1892e-05
-1.09749e-05
-1.5391e-05
-2.0034e-05
-2.49734e-05
-2.99276e-05
-3.24388e-05
-2.30469e-05
2.07319e-05
0.000131177
0.000330852
0.000607694
0.000904904
0.00113397
0.00120744
0.0010892
0.000830002
0.000548908
0.000360645
0.000304235
0.000370793
0.000540281
0.000756405
0.000947449
0.00107254
0.00111178
0.00104918
0.000870712
0.000592872
0.000229807
-0.000102888
-0.000401438
-0.000647624
-0.000777806
-0.000748212
-0.000565881
-0.000390258
-0.000318305
-0.000330605
-0.000365233
-0.000384146
-0.000381682
-0.000360295
-0.000324577
-0.000310756
-0.000383767
-0.000565162
-0.000754391
-0.000786041
-0.000654701
-0.000405651
-0.000103525
0.000233268
0.000597399
0.000874653
0.00105187
0.00111358
0.00107455
0.000950184
0.000759512
0.000542922
0.000371651
0.000303314
0.000358607
0.000546184
0.000827381
0.00108748
0.00120685
0.00113423
0.000905541
0.000608357
0.000331358
0.000131489
2.08968e-05
-2.29521e-05
-3.23597e-05
-2.9841e-05
-2.48732e-05
-1.99199e-05
-1.52637e-05
-1.08349e-05
-0.000193423
-0.000196337
-0.000199441
-0.000202803
-0.000206136
-0.000206842
-0.000194856
-0.000146637
-2.911e-05
0.000180598
0.000471777
0.000792811
0.00106572
0.00120909
0.00116545
0.000932398
0.000586149
0.000261403
5.9262e-05
-1.54702e-05
5.37888e-06
0.00011991
0.000301331
0.000481029
0.000617037
0.000675928
0.000624096
0.000449823
0.000163408
-0.000144981
-0.000395373
-0.000601947
-0.000711592
-0.000697251
-0.000561838
-0.000430132
-0.000368541
-0.000371624
-0.000398314
-0.000415503
-0.000413104
-0.000393177
-0.000364894
-0.000360552
-0.000424817
-0.000563338
-0.000703319
-0.000717938
-0.000608191
-0.000399885
-0.000147274
0.000164931
0.000451523
0.000625267
0.000676379
0.000617916
0.00048275
0.000303711
0.000121723
5.49592e-06
-1.71968e-05
5.61378e-05
0.000257399
0.000582086
0.000929542
0.00116452
0.00120981
0.00106742
0.000794874
0.000473783
0.000182336
-2.76722e-05
-0.000145416
-0.000193737
-0.000205744
-0.000205022
-0.000201666
-0.000198279
-0.000195152
-0.000192216
-0.000444881
-0.000446301
-0.000447847
-0.000449577
-0.00045121
-0.000450171
-0.000436328
-0.00038603
-0.000265956
-5.26395e-05
0.000245579
0.000582119
0.000888563
0.00109918
0.00115982
0.0010366
0.000742783
0.000360616
1.8082e-05
-0.000197902
-0.000302177
-0.000330419
-0.000286214
-0.000166174
-5.55531e-07
0.000146592
0.000235031
0.000207225
4.69011e-05
-0.000228127
-0.000421915
-0.000585937
-0.000675471
-0.000668037
-0.000580762
-0.000497121
-0.000450062
-0.00044538
-0.000463829
-0.000478803
-0.000476491
-0.000458456
-0.000438124
-0.000442026
-0.000493296
-0.000584191
-0.000674374
-0.000680531
-0.00059149
-0.000426632
-0.000232274
4.50741e-05
0.000205145
0.000232631
0.000144577
-1.41796e-06
-0.000166509
-0.000287312
-0.000333157
-0.000306531
-0.000203555
1.12689e-05
0.000353583
0.000737371
0.00103395
0.00115991
0.00110117
0.000891526
0.000585398
0.000248711
-4.98765e-05
-0.000263572
-0.00038392
-0.00043435
-0.000448217
-0.000449237
-0.000447572
-0.00044581
-0.000444235
-0.000442787
-0.000747163
-0.000747374
-0.000747639
-0.000747998
-0.000748182
-0.000745722
-0.000730727
-0.000679886
-0.00055981
-0.00034607
-4.5495e-05
0.000298999
0.000627074
0.000885219
0.00103423
0.00104278
0.000889554
0.000586487
0.000203074
-0.000151767
-0.00038534
-0.000520661
-0.000610136
-0.000639288
-0.000588332
-0.000451641
-0.000277296
-0.000149751
-0.000144623
-0.000332251
-0.000479878
-0.000596836
-0.000665284
-0.000655379
-0.000619105
-0.000587357
-0.000558226
-0.000547581
-0.000557901
-0.0005701
-0.000568033
-0.00055233
-0.000539954
-0.000550631
-0.000585232
-0.000624206
-0.000662323
-0.000670226
-0.000601707
-0.000484842
-0.000338022
-0.000150349
-0.000156193
-0.000283138
-0.000455782
-0.000591306
-0.000642682
-0.000615939
-0.000528443
-0.000394486
-0.000162366
0.000192098
0.000577166
0.00088356
0.00104064
0.00103509
0.000887878
0.000630645
0.000302754
-4.19932e-05
-0.000342975
-0.00055713
-0.000677514
-0.000728507
-0.000743533
-0.000745972
-0.000745753
-0.000745361
-0.000745065
-0.000744825
-0.00107616
-0.00107554
-0.0010749
-0.00107428
-0.00107341
-0.00106996
-0.0010544
-0.00100395
-0.000885099
-0.00067209
-0.000370132
-2.13149e-05
0.000315876
0.000598824
0.00080737
0.000923137
0.000922166
0.00078375
0.000507487
0.000136957
-0.000233396
-0.000508311
-0.000688125
-0.000838957
-0.000959349
-0.000969019
-0.000832417
-0.000607488
-0.000428565
-0.000447213
-0.00056955
-0.000639288
-0.00066748
-0.00065205
-0.000674687
-0.000699244
-0.000690648
-0.000676044
-0.000678556
-0.00068728
-0.000685816
-0.000672778
-0.00066812
-0.000683906
-0.000698934
-0.000681628
-0.000659789
-0.000673336
-0.000643765
-0.000575345
-0.000454144
-0.000437624
-0.000617315
-0.000840119
-0.000973691
-0.000963231
-0.000845016
-0.000696577
-0.000519405
-0.000247291
0.000121807
0.000493253
0.00077263
0.000915388
0.000920612
0.000808007
0.000601292
0.000319072
-1.79643e-05
-0.000366904
-0.000669178
-0.000882562
-0.00100171
-0.0010523
-0.00106789
-0.00107132
-0.00107217
-0.00107276
-0.00107336
-0.00107396
-0.00140858
-0.00140747
-0.0014063
-0.00140507
-0.00140354
-0.0013995
-0.00138378
-0.00133411
-0.00121679
-0.0010046
-0.000700778
-0.000345777
1.42839e-06
0.000294632
0.000521523
0.000697329
0.000819562
0.000849249
0.000752139
0.00051225
0.000146628
-0.000256863
-0.000600111
-0.000857382
-0.00108604
-0.00127822
-0.00130476
-0.00110941
-0.000807432
-0.000621418
-0.000662358
-0.000690677
-0.000660244
-0.000658058
-0.000747098
-0.000832464
-0.000846747
-0.000830258
-0.000825318
-0.000830127
-0.000829187
-0.000819467
-0.000822424
-0.000841457
-0.000833802
-0.000754997
-0.000665313
-0.000667132
-0.000696337
-0.000669524
-0.00062954
-0.000818813
-0.00112036
-0.0013114
-0.00128135
-0.0010895
-0.000863407
-0.000609486
-0.000270275
0.000130307
0.000495048
0.00073652
0.000837291
0.000812299
0.000693846
0.000520165
0.000294672
2.54699e-06
-0.000344097
-0.000699001
-0.00100303
-0.00121551
-0.00133309
-0.00138289
-0.00139864
-0.00140267
-0.00140418
-0.00140538
-0.00140652
-0.00140761
-0.00172808
-0.00172668
-0.00172521
-0.00172362
-0.00172171
-0.00171735
-0.00170174
-0.00165304
-0.00153739
-0.00132632
-0.00102107
-0.000660155
-0.000299775
1.56728e-05
0.000265036
0.000453323
0.000616158
0.00076553
0.000845559
0.000791532
0.000567968
0.000173812
-0.000301144
-0.000736716
-0.00108887
-0.00139126
-0.00160041
-0.00156395
-0.00125492
-0.000905005
-0.000759569
-0.00071548
-0.00065999
-0.000699862
-0.000845377
-0.000988353
-0.00102884
-0.0010127
-0.00100067
-0.00100128
-0.0010005
-0.000994915
-0.00100541
-0.00102578
-0.00099104
-0.000850891
-0.000704005
-0.000666489
-0.000722657
-0.00076759
-0.000914009
-0.00126662
-0.00157289
-0.00160378
-0.00139188
-0.00109
-0.000739994
-0.00030872
0.000161115
0.000551755
0.000773928
0.000828453
0.000750806
0.00060494
0.000445515
0.000259962
1.26268e-05
-0.00030128
-0.000660654
-0.0010211
-0.00132621
-0.00153734
-0.00165308
-0.00170184
-0.00171746
-0.0017218
-0.0017237
-0.00172526
-0.00172672
-0.00172809
-0.0020141
-0.00201248
-0.00201076
-0.00200891
-0.00200671
-0.00200216
-0.00198672
-0.00193891
-0.00182477
-0.00161481
-0.00130865
-0.000941802
-0.000567093
-0.000229189
4.96504e-05
0.00026668
0.000440877
0.000620345
0.000808077
0.000916803
0.000863535
0.000601333
0.000124458
-0.000457942
-0.000990344
-0.00141578
-0.00174333
-0.00188831
-0.00170674
-0.00130139
-0.000966164
-0.00079873
-0.000741778
-0.000820363
-0.000998958
-0.00117502
-0.00124143
-0.00122919
-0.0012107
-0.00120682
-0.00120598
-0.00120624
-0.00122389
-0.00124128
-0.00117816
-0.000999604
-0.000820016
-0.000745824
-0.000804602
-0.000973187
-0.00131006
-0.0017164
-0.00189316
-0.00174298
-0.0014128
-0.000986562
-0.00045652
0.000120686
0.00059165
0.000848456
0.000897611
0.000786713
0.00060152
0.000427031
0.000255686
4.02041e-05
-0.000237091
-0.000573682
-0.000947279
-0.00131328
-0.00161888
-0.00182852
-0.00194249
-0.00199023
-0.00200565
-0.00201018
-0.00201236
-0.0020142
-0.0020159
-0.0020175
-0.00223716
-0.00223531
-0.00223335
-0.00223124
-0.00222878
-0.00222401
-0.00220852
-0.00216079
-0.0020464
-0.00183502
-0.00152501
-0.00114996
-0.000761371
-0.000404914
-0.000103765
0.000139735
0.000340097
0.00053831
0.000755807
0.000938315
0.00100449
0.000878164
0.000502881
-9.36307e-05
-0.000780886
-0.00137153
-0.00181486
-0.00208925
-0.00208833
-0.00176288
-0.00134807
-0.00106707
-0.00097868
-0.00106582
-0.00125301
-0.0014255
-0.00150387
-0.00149928
-0.00147688
-0.00146861
-0.00146903
-0.0014775
-0.00149992
-0.0015079
-0.00142771
-0.00124907
-0.00106075
-0.000978395
-0.00106893
-0.00135244
-0.00176951
-0.00209463
-0.00209016
-0.00181081
-0.00136343
-0.000771081
-8.59476e-05
0.000505045
0.000872578
0.000991414
0.000917797
0.000730408
0.00051517
0.000321845
0.000123346
-0.000119623
-0.000419912
-0.000775344
-0.00116269
-0.00153632
-0.00184502
-0.00205542
-0.00216922
-0.00221669
-0.00223209
-0.00223683
-0.00223929
-0.00224139
-0.00224334
-0.00224518
-0.00235135
-0.00234944
-0.00234742
-0.00234526
-0.00234275
-0.00233783
-0.00232163
-0.00227157
-0.00215189
-0.00193152
-0.00160954
-0.00122203
-0.000822899
-0.000457408
-0.00014817
0.000105573
0.000321713
0.00052765
0.000736852
0.000917652
0.00101941
0.000980961
0.000721823
0.000205218
-0.000509285
-0.00125552
-0.00184228
-0.00222162
-0.00237378
-0.00221784
-0.00185893
-0.00153953
-0.00141219
-0.00147748
-0.00164147
-0.00178421
-0.00185454
-0.00185624
-0.00183439
-0.001823
-0.00182659
-0.00184239
-0.0018657
-0.00186344
-0.00178599
-0.00163492
-0.0014679
-0.00140627
-0.0015362
-0.00185969
-0.00222169
-0.00237655
-0.00221962
-0.00183459
-0.00124281
-0.000493883
0.00021828
0.000728717
0.000979536
0.00101015
0.000901301
0.000714852
0.00050376
0.000298979
8.39143e-05
-0.000170392
-0.000480421
-0.000846127
-0.00124476
-0.00163072
-0.00195069
-0.00216932
-0.00228788
-0.00233739
-0.00235343
-0.00235834
-0.00236088
-0.00236307
-0.00236511
-0.00236703
-0.00230519
-0.00230377
-0.00230226
-0.00230065
-0.00229866
-0.00229384
-0.00227587
-0.00221952
-0.00208657
-0.0018467
-0.00150426
-0.00110329
-0.000704208
-0.000351774
-6.06301e-05
0.000175372
0.00037001
0.00054235
0.000707922
0.000852228
0.000942344
0.000941867
0.00077865
0.000374386
-0.000282142
-0.00108809
-0.00182128
-0.002331
-0.00259826
-0.00261821
-0.00240628
-0.0021487
-0.00201286
-0.00203899
-0.00215209
-0.00225435
-0.00230695
-0.00231038
-0.00229267
-0.00228162
-0.00228667
-0.0023055
-0.00232599
-0.00231897
-0.00225699
-0.0021453
-0.00202667
-0.00200198
-0.00214098
-0.00240396
-0.00261966
-0.00259837
-0.00232734
-0.00181147
-0.00107255
-0.000264639
0.000389289
0.000787945
0.000944325
0.00093827
0.000842529
0.000693517
0.000524239
0.000348649
0.000151011
-8.77556e-05
-0.000381221
-0.000735087
-0.00113434
-0.00153416
-0.00187464
-0.00211252
-0.00224402
-0.00229967
-0.00231744
-0.00232227
-0.00232433
-0.00232602
-0.0023276
-0.00232908
-0.00211401
-0.00211352
-0.002113
-0.00211243
-0.00211144
-0.00210692
-0.0020865
-0.00202144
-0.0018715
-0.00160927
-0.00124698
-0.000838416
-0.000450363
-0.000127077
0.00012168
0.000306977
0.000445134
0.000551756
0.000645155
0.000736896
0.00080836
0.000822914
0.00072824
0.000434915
-0.000127625
-0.000916132
-0.00175771
-0.00241408
-0.0028005
-0.00294858
-0.00289304
-0.00274877
-0.00264361
-0.0026386
-0.00269874
-0.00275981
-0.00279241
-0.00279378
-0.00277981
-0.00277049
-0.00277471
-0.00279236
-0.00280917
-0.00280409
-0.00276296
-0.00269336
-0.00262733
-0.00263169
-0.00274016
-0.00288995
-0.00294855
-0.00280013
-0.00241016
-0.00174811
-0.000901897
-0.00011185
0.000448249
0.000736893
0.000826602
0.000807908
0.000733274
0.000637552
0.000539503
0.000428594
0.000286596
9.77581e-05
-0.000153986
-0.000479244
-0.000868017
-0.0012761
-0.00163711
-0.00189788
-0.00204668
-0.00211115
-0.0021314
-0.00213595
-0.00213701
-0.00213765
-0.00213825
-0.0021388
-0.00189838
-0.00189872
-0.00189906
-0.0018994
-0.00189926
-0.00189497
-0.00187249
-0.00180051
-0.00163785
-0.00135994
-0.000985062
-0.000574246
-0.000199466
9.44053e-05
0.000300624
0.000434723
0.000516902
0.000564523
0.000592688
0.000619962
0.00065908
0.000688075
0.000647612
0.000440128
-3.78268e-05
-0.000788643
-0.00166981
-0.00245193
-0.00296395
-0.00320747
-0.00325913
-0.00320039
-0.00313567
-0.00311525
-0.00313649
-0.00316545
-0.00318256
-0.00318152
-0.00317003
-0.00316142
-0.00316423
-0.0031784
-0.00319235
-0.00319101
-0.00316831
-0.00313358
-0.00310859
-0.00312735
-0.00319465
-0.00325726
-0.00320783
-0.00296447
-0.00245008
-0.00166334
-0.0007784
-2.5818e-05
0.000451186
0.000655348
0.000691827
0.000659213
0.000617011
0.00058708
0.000556299
0.000506018
0.00042158
0.000285621
7.78915e-05
-0.000216877
-0.000591914
-0.00100245
-0.00137667
-0.00165383
-0.00181589
-0.00188754
-0.00190992
-0.00191422
-0.00191439
-0.00191409
-0.00191378
-0.00191348
-0.00177207
-0.00177278
-0.00177351
-0.00177427
-0.00177453
-0.00177033
-0.0017469
-0.00167185
-0.00150381
-0.00121963
-0.00084006
-0.000428986
-6.10621e-05
0.000217652
0.00040122
0.000507211
0.000558445
0.000574324
0.00056965
0.000558077
0.0005642
0.00059464
0.000591044
0.000436313
7.80042e-06
-0.000714585
-0.0016112
-0.0024598
-0.00305328
-0.00335641
-0.0034513
-0.00343327
-0.00338768
-0.00336262
-0.00336714
-0.00338353
-0.00339687
-0.00339671
-0.00338737
-0.00337908
-0.00337967
-0.00339058
-0.00340173
-0.00340084
-0.00338569
-0.00336699
-0.00336141
-0.00338527
-0.00343202
-0.00345168
-0.00335806
-0.00305562
-0.00246139
-0.00161006
-0.00071104
1.34617e-05
0.000442962
0.000596337
0.000597285
0.00056483
0.000557648
0.000568363
0.000572163
0.00055551
0.000503625
0.00039712
0.00021317
-6.57718e-05