/*--------------------------------*- C++ -*----------------------------------*\
| =========                 |                                                 |
| \\      /  F ield         | OpenFOAM: The Open Source CFD Toolbox           |
|  \\    /   O peration     | Version:  2212                                  |
|   \\  /    A nd           | Website:  www.openfoam.com                      |
|    \\/     M anipulation  |                                                 |
\*---------------------------------------------------------------------------*/
FoamFile
{
    version     2.0;
    format      ascii;
    arch        "LSB;label=32;scalar=64";
    class       volVectorField;
    location    "6000";
    object      U;
}
// * * * * * * * * * * * * * * * * * * * * * * * * * * * * * * * * * * * * * //

dimensions      [0 1 -1 0 0 0 0];

internalField   nonuniform List<vector> 
4800
(
(0.000115269 1.55883e-07 5.01377e-08)
(0.000337678 1.01505e-07 -7.16159e-08)
(0.000581209 6.20147e-08 -1.76491e-07)
(0.00085367 -1.48489e-08 1.37767e-07)
(0.00116138 -6.27498e-08 9.75641e-07)
(0.00151048 -9.8147e-08 2.54709e-06)
(0.0019074 -1.10346e-07 4.77189e-06)
(0.00235894 -9.79511e-08 7.47206e-06)
(0.00287218 -6.29918e-08 1.02207e-05)
(0.00345395 -1.8982e-08 1.25255e-05)
(0.00410981 4.39336e-09 1.43197e-05)
(0.00484192 -3.40541e-08 1.70589e-05)
(0.00564501 -1.59451e-07 2.49227e-05)
(0.00650049 -3.50628e-07 4.46179e-05)
(0.00737089 -5.34502e-07 8.25695e-05)
(0.00820109 -6.19403e-07 0.000139645)
(0.00893332 -5.64491e-07 0.000207591)
(0.00953261 -4.11008e-07 0.000272245)
(0.0100057 -2.43283e-07 0.000322145)
(0.0103976 -1.28089e-07 0.000354695)
(0.0107655 -8.91788e-08 0.000377319)
(0.0111453 -1.08707e-07 0.000402532)
(0.0115331 -1.52874e-07 0.000441865)
(0.0118884 -1.84059e-07 0.000500361)
(0.0121566 -1.79006e-07 0.000572306)
(0.0122898 -1.32709e-07 0.000643145)
(0.0122607 -5.43394e-08 0.000692441)
(0.0120867 2.89205e-08 0.000699612)
(0.011841 7.63119e-08 0.000661057)
(0.0115768 8.71643e-08 0.000601482)
(0.0112673 1.08779e-07 0.000530134)
(0.0109524 1.58426e-07 0.000417921)
(0.010882 1.8188e-07 0.000242811)
(0.0112958 1.17643e-07 6.80599e-05)
(0.0119636 1.22448e-08 9.74609e-07)
(0.0124265 -3.80269e-08 3.65557e-05)
(0.0125709 -2.12838e-08 8.11689e-05)
(0.0125486 9.80697e-09 8.12418e-05)
(0.0125165 2.32405e-08 5.05879e-05)
(0.0125156 2.32873e-08 1.53722e-05)
(0.012522 2.291e-08 -1.66834e-05)
(0.0125293 2.28325e-08 -5.09189e-05)
(0.0125607 1.03275e-08 -8.15078e-05)
(0.0125795 -2.02737e-08 -8.27504e-05)
(0.0124325 -3.9421e-08 -3.91288e-05)
(0.011963 7.88317e-09 7.80706e-07)
(0.0112841 1.16706e-07 -6.12761e-05)
(0.0108599 1.86946e-07 -0.000238878)
(0.0109347 1.63244e-07 -0.0004203)
(0.0112653 1.09005e-07 -0.000534751)
(0.0115875 8.49072e-08 -0.000604741)
(0.0118562 7.38728e-08 -0.000662667)
(0.0121017 2.62183e-08 -0.00069973)
(0.0122718 -5.7422e-08 -0.000690927)
(0.0122943 -1.35319e-07 -0.000640164)
(0.0121536 -1.79955e-07 -0.000568501)
(0.0118785 -1.82715e-07 -0.000496621)
(0.0115178 -1.49388e-07 -0.000438897)
(0.0111271 -1.03296e-07 -0.000400767)
(0.010747 -8.26498e-08 -0.000377019)
(0.0103809 -1.22089e-07 -0.000355708)
(0.00999174 -2.38661e-07 -0.000324087)
(0.00952148 -4.0835e-07 -0.000274743)
(0.00892469 -5.64296e-07 -0.000210273)
(0.00819447 -6.21597e-07 -0.000142214)
(0.00736581 -5.38654e-07 -8.48409e-05)
(0.00649658 -3.56173e-07 -4.65019e-05)
(0.00564197 -1.65813e-07 -2.64014e-05)
(0.00483953 -4.07387e-08 -1.81589e-05)
(0.00410791 -2.16452e-09 -1.50922e-05)
(0.00345241 -2.50012e-08 -1.30327e-05)
(0.00287094 -6.8155e-08 -1.05269e-05)
(0.00235794 -1.02007e-07 -7.63484e-06)
(0.0019066 -1.13334e-07 -4.84337e-06)
(0.00150986 -1.00129e-07 -2.55844e-06)
(0.00116091 -6.62746e-08 -9.70052e-07)
(0.000853329 -1.8979e-08 -7.68771e-08)
(0.000580984 3.10815e-08 2.50049e-07)
(0.000337552 6.68535e-08 2.12533e-07)
(0.000115229 6.38659e-08 5.50503e-08)
(0.000337268 3.42547e-07 -1.64502e-08)
(0.00102721 2.41783e-07 -3.70111e-09)
(0.00179683 -1.93155e-07 3.81828e-07)
(0.00266267 -8.69787e-07 1.70756e-06)
(0.00364235 -1.50721e-06 4.44912e-06)
(0.00475463 -2.02492e-06 9.07311e-06)
(0.00601972 -2.26807e-06 1.55751e-05)
(0.00745921 -2.1693e-06 2.35473e-05)
(0.00909557 -1.75057e-06 3.19696e-05)
(0.0109506 -1.24098e-06 3.96631e-05)
(0.0130421 -1.15937e-06 4.67088e-05)
(0.0153767 -2.22993e-06 5.75378e-05)
(0.0179379 -4.92127e-06 8.43862e-05)
(0.020666 -8.85853e-06 0.000146868)
(0.0234416 -1.26203e-05 0.000263863)
(0.0260887 -1.43739e-05 0.00043808)
(0.0284231 -1.32126e-05 0.000645335)
(0.0303336 -9.89895e-06 0.000843563)
(0.0318418 -6.18032e-06 0.000998207)
(0.0330913 -3.56494e-06 0.00110108)
(0.0342643 -2.6306e-06 0.00117435)
(0.0354755 -3.03361e-06 0.00125588)
(0.0367119 -3.99522e-06 0.00138068)
(0.0378448 -4.66469e-06 0.00156401)
(0.0386997 -4.49174e-06 0.00178839)
(0.0391242 -3.34801e-06 0.00200924)
(0.0390311 -1.43142e-06 0.00216364)
(0.0384762 6.2084e-07 0.00218795)
(0.0376926 1.85876e-06 0.00206999)
(0.0368501 2.23204e-06 0.00188455)
(0.0358641 2.79881e-06 0.00166062)
(0.0348608 3.97639e-06 0.00131025)
(0.0346364 4.47902e-06 0.000767085)
(0.0359545 2.90886e-06 0.00022605)
(0.0380835 3.89509e-07 1.6656e-05)
(0.0395601 -8.19979e-07 0.000123142)
(0.0400209 -4.39011e-07 0.000257892)
(0.0399499 2.97931e-07 0.000255906)
(0.0398474 6.2156e-07 0.000159294)
(0.0398446 6.26595e-07 4.84998e-05)
(0.0398651 6.17585e-07 -5.26134e-05)
(0.0398883 6.1195e-07 -0.000160391)
(0.0399886 3.10073e-07 -0.000256819)
(0.0400485 -4.16246e-07 -0.00026282)
(0.0395795 -8.5586e-07 -0.000131017)
(0.0380816 2.85886e-07 -1.1086e-05)
(0.0359171 2.88657e-06 -0.000205021)
(0.0345656 4.59838e-06 -0.000754903)
(0.0348046 4.09319e-06 -0.00131752)
(0.0358579 2.8093e-06 -0.00167485)
(0.0368846 2.18047e-06 -0.00189468)
(0.037741 1.7991e-06 -0.00207504)
(0.038524 5.53644e-07 -0.00218837)
(0.0390666 -1.50636e-06 -0.002159)
(0.0391385 -3.40997e-06 -0.00200009)
(0.0386901 -4.51376e-06 -0.00177673)
(0.0378132 -4.63282e-06 -0.00155254)
(0.0366632 -3.91238e-06 -0.00137158)
(0.0354176 -2.90586e-06 -0.00125047)
(0.0342054 -2.47844e-06 -0.00117342)
(0.033038 -3.42437e-06 -0.00110417)
(0.0317973 -6.07298e-06 -0.00100413)
(0.0302981 -9.83802e-06 -0.000851177)
(0.0283957 -1.32078e-05 -0.000653508)
(0.0260676 -1.4423e-05 -0.000445915)
(0.0234255 -1.27135e-05 -0.000270799)
(0.0206536 -8.98321e-06 -0.000152636)
(0.0179282 -5.06451e-06 -8.89302e-05)
(0.0153692 -2.38012e-06 -6.09384e-05)
(0.013036 -1.30624e-06 -4.91213e-05)
(0.0109458 -1.37571e-06 -4.12757e-05)
(0.00909164 -1.8667e-06 -3.29748e-05)
(0.00745604 -2.2622e-06 -2.41167e-05)
(0.00601719 -2.33731e-06 -1.58577e-05)
(0.00475266 -2.06995e-06 -9.16997e-06)
(0.00364085 -1.5448e-06 -4.45702e-06)
(0.00266159 -8.94001e-07 -1.62578e-06)
(0.00179611 -2.71449e-07 -2.80634e-07)
(0.00102681 1.56628e-07 1.06838e-07)
(0.000337141 2.31127e-07 4.97955e-08)
(0.00058373 2.51639e-07 9.901e-09)
(0.00180418 -2.7005e-07 4.08147e-07)
(0.00318288 -1.57024e-06 1.70417e-06)
(0.00474414 -3.39421e-06 4.5588e-06)
(0.00651639 -5.28346e-06 9.65539e-06)
(0.00853184 -6.85154e-06 1.76746e-05)
(0.0108262 -7.66311e-06 2.87638e-05)
(0.0134383 -7.45794e-06 4.24113e-05)
(0.0164085 -6.2987e-06 5.72303e-05)
(0.0197765 -4.91449e-06 7.166e-05)
(0.0235744 -4.97954e-06 8.63134e-05)
(0.0278145 -8.83948e-06 0.000108996)
(0.0324662 -1.8031e-05 0.000160338)
(0.0374211 -3.13244e-05 0.000273169)
(0.0424612 -4.39919e-05 0.00047902)
(0.0472665 -4.98942e-05 0.000782391)
(0.0515028 -4.59354e-05 0.00114264)
(0.0549688 -3.46261e-05 0.0014886)
(0.0577051 -2.18741e-05 0.0017612)
(0.0599727 -1.28612e-05 0.00194602)
(0.0621023 -9.61285e-06 0.00208081)
(0.0643014 -1.09783e-05 0.0022308)
(0.066546 -1.42709e-05 0.00245634)
(0.0686023 -1.65511e-05 0.00278364)
(0.0701538 -1.59072e-05 0.0031822)
(0.070924 -1.18817e-05 0.00357425)
(0.0707547 -5.1496e-06 0.00384961)
(0.0697468 2.0802e-06 0.00389625)
(0.0683237 6.49829e-06 0.0036908)
(0.0667942 7.89278e-06 0.00336206)
(0.0650059 9.91352e-06 0.00296172)
(0.063187 1.40186e-05 0.00233891)
(0.0627793 1.57386e-05 0.00138016)
(0.0651692 1.02237e-05 0.0004268)
(0.0690332 1.40417e-06 5.44353e-05)
(0.0717156 -2.84005e-06 0.000235188)
(0.0725535 -1.52476e-06 0.000466533)
(0.0724248 1.04661e-06 0.000459068)
(0.0722385 2.17975e-06 0.000285677)
(0.0722336 2.19907e-06 8.7148e-05)
(0.0722708 2.16744e-06 -9.44938e-05)
(0.0723128 2.14604e-06 -0.000287746)
(0.072495 1.08858e-06 -0.000460856)
(0.0726039 -1.44686e-06 -0.000475295)
(0.0717515 -2.96817e-06 -0.000248876)
(0.0690304 1.04122e-06 -4.42952e-05)
(0.0651011 1.01471e-05 -0.000389629)
(0.0626499 1.6157e-05 -0.0013587)
(0.0630848 1.44283e-05 -0.00235165)
(0.0649951 9.95251e-06 -0.0029867)
(0.0668571 7.71367e-06 -0.00337995)
(0.0684116 6.28868e-06 -0.00369983)
(0.0698336 1.84335e-06 -0.00389708)
(0.0708191 -5.4125e-06 -0.00384152)
(0.0709499 -1.20978e-05 -0.00355826)
(0.0701364 -1.59835e-05 -0.00316184)
(0.0685451 -1.64397e-05 -0.00276364)
(0.0664578 -1.39819e-05 -0.00244048)
(0.0641964 -1.05337e-05 -0.00222138)
(0.0619955 -9.08436e-06 -0.00207917)
(0.0598761 -1.23728e-05 -0.00195134)
(0.0576244 -2.15015e-05 -0.00177146)
(0.0549046 -3.44151e-05 -0.0015018)
(0.0514531 -4.59181e-05 -0.00115681)
(0.0472284 -5.00627e-05 -0.000795988)
(0.042432 -4.43122e-05 -0.000491078)
(0.0373986 -3.17531e-05 -0.000283222)
(0.0324487 -1.85237e-05 -0.000168287)
(0.0278009 -9.35601e-06 -0.000114979)
(0.0235636 -5.48446e-06 -9.05978e-05)
(0.0197678 -5.37801e-06 -7.45682e-05)
(0.0164015 -6.69951e-06 -5.90896e-05)
(0.0134326 -7.78246e-06 -4.35129e-05)
(0.0108217 -7.90975e-06 -2.93536e-05)
(0.00852829 -7.02381e-06 -1.79283e-05)
(0.00651369 -5.40685e-06 -9.71983e-06)
(0.00474219 -3.47089e-06 -4.49395e-06)
(0.00318159 -1.64586e-06 -1.61724e-06)
(0.00180346 -3.14843e-07 -3.3116e-07)
(0.000583502 2.27552e-07 1.66191e-08)
(0.000863432 -2.3939e-07 3.01249e-08)
(0.00268927 -2.0188e-06 9.7787e-07)
(0.00477008 -4.94865e-06 3.54051e-06)
(0.00714085 -8.68898e-06 8.42106e-06)
(0.00984255 -1.25715e-05 1.64539e-05)
(0.0129224 -1.58267e-05 2.84239e-05)
(0.0164336 -1.76065e-05 4.46178e-05)
(0.0204347 -1.73368e-05 6.45118e-05)
(0.0249874 -1.51541e-05 8.65824e-05)
(0.0301521 -1.26494e-05 0.000109258)
(0.0359778 -1.34951e-05 0.000134202)
(0.0424832 -2.28317e-05 0.00017317)
(0.0496206 -4.40252e-05 0.00025558)
(0.0572225 -7.42912e-05 0.000427498)
(0.0649523 -0.000102999 0.000732621)
(0.0723178 -0.000116329 0.00117658)
(0.0788068 -0.000107246 0.00170188)
(0.0841136 -8.13595e-05 0.0022081)
(0.0883032 -5.20859e-05 0.00261124)
(0.0917772 -3.1335e-05 0.00289053)
(0.0950419 -2.38419e-05 0.0030999)
(0.0984134 -2.70098e-05 0.00333321)
(0.101854 -3.46257e-05 0.00367734)
(0.105005 -3.98811e-05 0.00416959)
(0.107382 -3.83235e-05 0.00476529)
(0.108561 -2.88533e-05 0.00535076)
(0.108302 -1.30087e-05 0.00576415)
(0.106756 4.07793e-06 0.00583992)
(0.104574 1.46707e-05 0.0055401)
(0.10223 1.81779e-05 0.00504984)
(0.0994923 2.30363e-05 0.00444685)
(0.0967098 3.26484e-05 0.00351555)
(0.0960845 3.65925e-05 0.00209425)
(0.0997412 2.35659e-05 0.000683739)
(0.105661 2.78557e-06 0.000126297)
(0.109776 -7.27578e-06 0.000381011)
(0.111064 -4.26844e-06 0.000712313)
(0.110867 1.74094e-06 0.000694157)
(0.110581 4.40293e-06 0.000431853)
(0.110574 4.45124e-06 0.00013204)
(0.110631 4.37566e-06 -0.000143082)
(0.110695 4.32123e-06 -0.000435171)
(0.110975 1.83535e-06 -0.000697154)
(0.111141 -4.0931e-06 -0.000725443)
(0.109832 -7.5852e-06 -0.000400897)
(0.105658 1.93341e-06 -0.0001106)
(0.099636 2.33937e-05 -0.000628446)
(0.0958846 3.75812e-05 -0.00206256)
(0.0965527 3.3614e-05 -0.0035343)
(0.0994765 2.31316e-05 -0.00448369)
(0.102327 1.77588e-05 -0.00507639)
(0.104709 1.41751e-05 -0.00555363)
(0.106889 3.51647e-06 -0.00584128)
(0.1084 -1.36284e-05 -0.0057523)
(0.108601 -2.9359e-05 -0.00532734)
(0.107355 -3.85003e-05 -0.00473552)
(0.104917 -3.96195e-05 -0.00414037)
(0.101719 -3.39491e-05 -0.00365416)
(0.098253 -2.59717e-05 -0.00331944)
(0.0948786 -2.26105e-05 -0.00309745)
(0.0916295 -3.01964e-05 -0.00289822)
(0.0881798 -5.12178e-05 -0.00262612)
(0.0840154 -8.0868e-05 -0.00222725)
(0.0787309 -0.000107203 -0.00172245)
(0.0722596 -0.000116715 -0.00119634)
(0.0649078 -0.000103736 -0.000750187)
(0.0571883 -7.52791e-05 -0.000442188)
(0.0495942 -4.51616e-05 -0.000267249)
(0.0424625 -2.40233e-05 -0.000182009)
(0.0359613 -1.46602e-05 -0.000140594)
(0.0301388 -1.37206e-05 -0.000113664)
(0.0249768 -1.60839e-05 -8.94681e-05)
(0.0204261 -1.80973e-05 -6.62913e-05)
(0.0164267 -1.81935e-05 -4.56376e-05)
(0.012917 -1.62499e-05 -2.89448e-05)
(0.00983848 -1.28651e-05 -1.66817e-05)
(0.00713791 -8.87026e-06 -8.48249e-06)
(0.00476813 -5.06085e-06 -3.5468e-06)
(0.00268818 -2.05583e-06 -9.74424e-07)
(0.000863087 -2.47506e-07 -2.78997e-08)
(0.00118381 -1.5262e-06 7.64007e-08)
(0.00370425 -5.91564e-06 1.72208e-06)
(0.00659443 -1.17106e-05 5.81889e-06)
(0.00990425 -1.84476e-05 1.31661e-05)
(0.0136909 -2.52493e-05 2.47011e-05)
(0.0180199 -3.09202e-05 4.12676e-05)
(0.0229651 -3.4113e-05 6.32236e-05)
(0.028608 -3.38632e-05 9.00596e-05)
(0.0350353 -3.04799e-05 0.000120294)
(0.0423317 -2.69184e-05 0.000152746)
(0.0505661 -2.99434e-05 0.000190805)
(0.059764 -4.89435e-05 0.000251036)
(0.0698558 -8.9958e-05 0.00037221)
(0.0806008 -0.000147554 0.000613332)
(0.0915186 -0.000201736 0.00102875)
(0.101911 -0.000226675 0.00162344)
(0.111057 -0.000209234 0.00232266)
(0.118532 -0.000159947 0.00299799)
(0.124433 -0.000104151 0.00354206)
(0.129332 -6.45862e-05 0.0039285)
(0.133938 -5.04143e-05 0.00422773)
(0.138696 -5.67036e-05 0.00456238)
(0.143548 -7.15032e-05 0.00504563)
(0.147989 -8.16539e-05 0.00572521)
(0.151338 -7.85456e-05 0.00654115)
(0.153001 -5.99961e-05 0.00734206)
(0.152635 -2.89104e-05 0.00791109)
(0.150457 4.79357e-06 0.00802483)
(0.147378 2.60509e-05 0.00762626)
(0.144071 3.34957e-05 0.00695666)
(0.140217 4.33549e-05 0.00612316)
(0.136303 6.2173e-05 0.00484726)
(0.135422 6.96751e-05 0.00292115)
(0.140567 4.38736e-05 0.00101433)
(0.148909 2.86958e-06 0.00024939)
(0.154717 -1.71212e-05 0.000571796)
(0.15654 -1.14643e-05 0.00100088)
(0.156265 2.18135e-07 0.000964171)
(0.155862 5.42927e-06 0.000599645)
(0.155852 5.52828e-06 0.000183844)
(0.155932 5.37618e-06 -0.000199068)
(0.156022 5.26105e-06 -0.000604574)
(0.156416 3.90141e-07 -0.000968841)
(0.15665 -1.11431e-05 -0.00101893)
(0.154799 -1.77507e-05 -0.000598024)
(0.148907 1.20205e-06 -0.000226897)
(0.140417 4.35631e-05 -0.000939001)
(0.135137 7.16367e-05 -0.00287841)
(0.136081 6.40765e-05 -0.00487255)
(0.140196 4.35485e-05 -0.00617279)
(0.144209 3.26737e-05 -0.00699269)
(0.147568 2.5071e-05 -0.00764485)
(0.150644 3.6806e-06 -0.0080269)
(0.152773 -3.01304e-05 -0.0078953)
(0.153056 -6.09832e-05 -0.00731078)
(0.151301 -7.8887e-05 -0.00650148)
(0.147866 -8.11417e-05 -0.0056863)
(0.143358 -7.01812e-05 -0.00501478)
(0.13847 -5.46825e-05 -0.00454404)
(0.133709 -4.80221e-05 -0.00422435)
(0.129124 -6.23734e-05 -0.00393857)
(0.12426 -0.000102466 -0.00356167)
(0.118394 -0.000158993 -0.00302326)
(0.11095 -0.000209144 -0.00234984)
(0.101829 -0.000227409 -0.0016496)
(0.0914563 -0.000203144 -0.00105207)
(0.0805531 -0.000149446 -0.000632915)
(0.069819 -9.21377e-05 -0.000387848)
(0.0597352 -5.12314e-05 -0.000262969)
(0.0505432 -3.21827e-05 -0.000199524)
(0.0423133 -2.89819e-05 -0.000158849)
(0.0350205 -3.22794e-05 -0.000124383)
(0.0285961 -3.5349e-05 -9.26682e-05)
(0.0229556 -3.5274e-05 -6.47967e-05)
(0.0180125 -3.17701e-05 -4.21471e-05)
(0.0136853 -2.58266e-05 -2.51474e-05)
(0.00990017 -1.87884e-05 -1.3358e-05)
(0.00659172 -1.18704e-05 -5.88581e-06)
(0.00370273 -5.94462e-06 -1.7344e-06)
(0.00118333 -1.50707e-06 -7.47952e-08)
(0.00155252 -3.88598e-06 1.21421e-07)
(0.00487289 -1.28849e-05 2.52062e-06)
(0.00869727 -2.34113e-05 8.33971e-06)
(0.013095 -3.47898e-05 1.84996e-05)
(0.0181445 -4.58286e-05 3.40299e-05)
(0.0239343 -5.48501e-05 5.57904e-05)
(0.0305638 -5.99599e-05 8.41155e-05)
(0.0381425 -5.9828e-05 0.000118466)
(0.0467863 -5.51976e-05 0.000157511)
(0.0566088 -5.11702e-05 0.000200871)
(0.0677014 -5.90706e-05 0.000254566)
(0.0800948 -9.42639e-05 0.000341264)
(0.093689 -0.000166156 0.000509964)
(0.10815 -0.000264946 0.000831956)
(0.122822 -0.000356586 0.00136914)
(0.136762 -0.00039792 0.0021222)
(0.14901 -0.000367474 0.00299854)
(0.159011 -0.000283284 0.00384509)
(0.16691 -0.000188188 0.00453551)
(0.173473 -0.000120744 0.00504044)
(0.17965 -9.66214e-05 0.00544668)
(0.186024 -0.000107458 0.00590396)
(0.192518 -0.000132667 0.00654923)
(0.198456 -0.000149702 0.00743848)
(0.202933 -0.000143726 0.00849561)
(0.205158 -0.000110861 0.00953135)
(0.204674 -5.60531e-05 0.0102727)
(0.201763 3.57179e-06 0.0104356)
(0.197642 4.17757e-05 0.00993859)
(0.193214 5.57306e-05 0.00907462)
(0.188063 7.32769e-05 0.00798318)
(0.182839 0.000105892 0.0063302)
(0.181659 0.000118528 0.0038688)
(0.188525 7.31763e-05 0.00144003)
(0.199678 1.45839e-06 0.000447214)
(0.207456 -3.3637e-05 0.000821785)
(0.209906 -2.39057e-05 0.00133726)
(0.209543 -3.53529e-06 0.00127039)
(0.209004 5.59148e-06 0.000789764)
(0.208992 5.77679e-06 0.000242933)
(0.209099 5.51194e-06 -0.00026281)
(0.209219 5.30156e-06 -0.000796773)
(0.209746 -3.2357e-06 -0.00127735)
(0.210056 -2.33674e-05 -0.00136072)
(0.207569 -3.4781e-05 -0.000854087)
(0.199677 -1.47634e-06 -0.000416447)
(0.188323 7.26643e-05 -0.00134312)
(0.181273 0.000122 -0.00381455)
(0.182542 0.000109242 -0.00636233)
(0.188038 7.36275e-05 -0.00804615)
(0.1934 5.43018e-05 -0.00912073)
(0.197897 4.00508e-05 -0.00996274)
(0.202012 1.60604e-06 -0.0104386)
(0.204858 -5.81966e-05 -0.0102529)
(0.205232 -0.000112582 -0.00949214)
(0.202883 -0.000144319 -0.00844601)
(0.198292 -0.000148811 -0.00738985)
(0.192265 -0.000130371 -0.00651067)
(0.185724 -0.000103952 -0.00588099)
(0.179344 -9.2473e-05 -0.00544227)
(0.173196 -0.0001169 -0.00505273)
(0.166679 -0.000185257 -0.0045597)
(0.158827 -0.000281621 -0.00387634)
(0.148868 -0.0003673 -0.00303221)
(0.136654 -0.000399163 -0.00215471)
(0.12274 -0.000358992 -0.00139824)
(0.108087 -0.000268189 -0.000856517)
(0.0936403 -0.000169901 -0.000529704)
(0.0800568 -9.82031e-05 -0.000356452)
(0.0676713 -6.29341e-05 -0.000265787)
(0.0565847 -5.47422e-05 -0.000208844)
(0.0467669 -5.83304e-05 -0.000162961)
(0.0381268 -6.24407e-05 -0.000122043)
(0.0305513 -6.20322e-05 -8.63583e-05)
(0.0239246 -5.64044e-05 -5.7121e-05)
(0.0181371 -4.69208e-05 -3.47666e-05)
(0.0130897 -3.54891e-05 -1.88686e-05)
(0.00869372 -2.38011e-05 -8.49704e-06)
(0.0048709 -1.30499e-05 -2.56638e-06)
(0.00155189 -3.91726e-06 -1.22887e-07)
(0.001978 -7.83399e-06 1.70426e-07)
(0.00622179 -2.42984e-05 3.36467e-06)
(0.0111259 -4.21905e-05 1.09878e-05)
(0.0167838 -6.0479e-05 2.40878e-05)
(0.0233007 -7.75076e-05 4.37605e-05)
(0.0307946 -9.10169e-05 7.08272e-05)
(0.0393968 -9.85393e-05 0.000105468)
(0.0492513 -9.85449e-05 0.000146953)
(0.0605094 -9.27461e-05 0.000194083)
(0.0733172 -8.96073e-05 0.000247742)
(0.0877886 -0.000107118 0.000317899)
(0.103953 -0.000168632 0.000435285)
(0.121664 -0.000287148 0.000660282)
(0.140465 -0.000444696 0.00107547)
(0.159483 -0.000586872 0.00174514)
(0.177496 -0.000647642 0.0026595)
(0.193283 -0.00059577 0.00370716)
(0.206161 -0.000460789 0.00471647)
(0.21634 -0.000309761 0.00555047)
(0.224808 -0.000202735 0.00618177)
(0.232776 -0.000164171 0.00671311)
(0.24098 -0.000180517 0.00731691)
(0.249319 -0.00021904 0.00814804)
(0.256932 -0.000244034 0.0092665)
(0.262673 -0.000232191 0.0105797)
(0.265533 -0.000177425 0.0118631)
(0.264927 -8.75825e-05 0.0127898)
(0.261202 1.01266e-05 0.0130157)
(0.25591 7.34978e-05 0.0124281)
(0.250211 9.73129e-05 0.0113617)
(0.243598 0.000125744 0.00998974)
(0.236902 0.000177493 0.00793757)
(0.235381 0.000197102 0.00493379)
(0.244168 0.000124219 0.00198336)
(0.258467 9.75778e-06 0.00074867)
(0.26846 -4.57407e-05 0.00114667)
(0.271622 -2.95764e-05 0.00172327)
(0.271164 3.41413e-06 0.00160985)
(0.270474 1.81916e-05 0.00100021)
(0.270458 1.85327e-05 0.000308885)
(0.270595 1.81317e-05 -0.000333813)
(0.270748 1.77853e-05 -0.00100987)
(0.271424 3.95865e-06 -0.00161986)
(0.271815 -2.8692e-05 -0.00175244)
(0.268608 -4.76382e-05 -0.00118411)
(0.258468 4.95164e-06 -0.000707996)
(0.243904 0.000123398 -0.00186419)
(0.234879 0.000202745 -0.00486817)
(0.236519 0.000182916 -0.00797643)
(0.243568 0.000126328 -0.0100659)
(0.250453 9.50365e-05 -0.0114181)
(0.256237 7.07281e-05 -0.0124582)
(0.261521 6.95192e-06 -0.0130199)
(0.265161 -9.10351e-05 -0.0127663)
(0.265626 -0.000180185 -0.0118164)
(0.262607 -0.00023314 -0.0105209)
(0.256721 -0.000242614 -0.00920883)
(0.248995 -0.000215368 -0.00810228)
(0.240596 -0.000174914 -0.00728957)
(0.232384 -0.000157539 -0.00670755)
(0.224454 -0.000196576 -0.00619589)
(0.216044 -0.000305054 -0.00557869)
(0.205926 -0.000458111 -0.00475307)
(0.193102 -0.000595461 -0.00374673)
(0.177357 -0.000649585 -0.00269787)
(0.159378 -0.000590671 -0.00177967)
(0.140384 -0.000449841 -0.00110482)
(0.121603 -0.000293111 -0.000684059)
(0.103905 -0.000174924 -0.000453754)
(0.0877506 -0.000113311 -0.000331702)
(0.0732867 -9.53606e-05 -0.000257689)
(0.0604849 -9.78279e-05 -0.000201002)
(0.0492316 -0.00010283 -0.00015159)
(0.0393811 -0.000101992 -0.000108449)
(0.0307823 -9.36661e-05 -7.26483e-05)
(0.0232914 -7.94292e-05 -4.48001e-05)
(0.0167771 -6.17732e-05 -2.4624e-05)
(0.0111214 -4.29718e-05 -1.122e-05)
(0.00621928 -2.46835e-05 -3.43208e-06)
(0.00197721 -7.93522e-06 -1.73067e-07)
(0.00246971 -1.38543e-05 2.19179e-07)
(0.00778086 -4.15032e-05 4.13563e-06)
(0.0139339 -7.01572e-05 1.33524e-05)
(0.0210515 -9.82086e-05 2.8969e-05)
(0.0292719 -0.00012331 5.2029e-05)
(0.03875 -0.000142442 8.31388e-05)
(0.0496571 -0.000152517 0.000122043)
(0.0621791 -0.000152144 0.000167381)
(0.0765073 -0.000145127 0.000217569)
(0.0928205 -0.00014555 0.00027487)
(0.111248 -0.000180645 0.000355432)
(0.131799 -0.000283465 0.000501294)
(0.154248 -0.000469054 0.000786302)
(0.177972 -0.000705705 0.00130197)
(0.201845 -0.000910296 0.00210881)
(0.224345 -0.000988561 0.003179)
(0.244003 -0.000900907 0.00438151)
(0.260029 -0.000694539 0.00553433)
(0.272716 -0.000468072 0.00650129)
(0.283283 -0.000308677 0.00726374)
(0.293202 -0.000250972 0.00793904)
(0.303368 -0.000273927 0.00871494)
(0.313653 -0.000328664 0.00975471)
(0.323025 -0.000362249 0.0111159)
(0.330096 -0.000340351 0.01269)
(0.33364 -0.000253831 0.014223)
(0.332931 -0.000114172 0.0153417)
(0.328363 3.80141e-05 0.0156466)
(0.321825 0.000138509 0.0149873)
(0.314755 0.00017791 0.0137227)
(0.306574 0.000221979 0.0120592)
(0.298305 0.000299584 0.00960544)
(0.2964 0.000328259 0.00609004)
(0.307196 0.000217632 0.00265927)
(0.324811 4.46774e-05 0.00118141)
(0.337147 -3.88838e-05 0.00155855)
(0.34107 -1.38532e-05 0.00215358)
(0.340517 3.66685e-05 0.00197234)
(0.339668 5.93689e-05 0.00122436)
(0.339647 5.99797e-05 0.000379843)
(0.339815 5.94e-05 -0.000410075)
(0.340004 5.88279e-05 -0.00123735)
(0.340837 3.75753e-05 -0.00198625)
(0.341308 -1.25046e-05 -0.00218833)
(0.337333 -4.18902e-05 -0.00159922)
(0.324816 3.72224e-05 -0.00112923)
(0.306867 0.000216395 -0.00251878)
(0.295773 0.000336925 -0.00601415)
(0.297832 0.000307875 -0.00965026)
(0.306542 0.000222899 -0.0121472)
(0.315057 0.000174481 -0.013789)
(0.322228 0.000134286 -0.0150235)
(0.328753 3.31433e-05 -0.0156524)
(0.333215 -0.000119437 -0.0153152)
(0.333749 -0.000258 -0.0141701)
(0.330012 -0.000341769 -0.0126235)
(0.322764 -0.000360098 -0.0110508)
(0.313255 -0.000323111 -0.00970299)
(0.302895 -0.000265476 -0.00868389)
(0.292721 -0.000240973 -0.00793224)
(0.282846 -0.000299363 -0.00727899)
(0.27235 -0.000460956 -0.00653248)
(0.259738 -0.00069047 -0.00557504)
(0.243778 -0.000900376 -0.00442574)
(0.224174 -0.000991396 -0.00322216)
(0.201716 -0.000915919 -0.00214794)
(0.177873 -0.000713375 -0.00133552)
(0.154172 -0.000477999 -0.000813748)
(0.13174 -0.000292952 -0.000522849)
(0.111201 -0.000190034 -0.000371739)
(0.0927835 -0.000154331 -0.000286782)
(0.0764775 -0.000152953 -0.000225975)
(0.0621551 -0.000158824 -0.000173103)
(0.049638 -0.000157989 -0.000125783)
(0.038735 -0.000146739 -8.54616e-05)
(0.0292606 -0.000126524 -5.33761e-05)
(0.0210433 -0.000100467 -2.96736e-05)
(0.0139284 -7.16007e-05 -1.36607e-05)
(0.00777782 -4.22741e-05 -4.22615e-06)
(0.00246875 -1.40844e-05 -2.2301e-07)
(0.00303802 -2.23077e-05 2.55355e-07)
(0.00958296 -6.53086e-05 4.54108e-06)
(0.0171804 -0.000108294 1.44251e-05)
(0.0259878 -0.000148794 3.08178e-05)
(0.0361835 -0.000183477 5.43728e-05)
(0.0479673 -0.000208301 8.50154e-05)
(0.0615599 -0.000219406 0.000121393)
(0.0771956 -0.000215864 0.000160566)
(0.0951052 -0.000205579 0.000198739)
(0.115487 -0.000212567 0.000237996)
(0.138458 -0.000278471 0.000301155)
(0.163969 -0.000446313 0.000447676)
(0.191661 -0.000727638 0.000771357)
(0.220697 -0.00106849 0.00137255)
(0.249673 -0.0013471 0.00230327)
(0.276794 -0.00143781 0.003513)
(0.300404 -0.00129744 0.00485127)
(0.319667 -0.000998862 0.00613126)
(0.334966 -0.0006793 0.007226)
(0.347722 -0.00045672 0.00813041)
(0.359632 -0.000377171 0.0089738)
(0.37173 -0.00040949 0.00995032)
(0.383888 -0.000484242 0.0112201)
(0.394935 -0.000527365 0.0128311)
(0.403286 -0.00049079 0.0146606)
(0.407514 -0.000360952 0.0164345)
(0.406753 -0.000153339 0.0177453)
(0.401398 7.44062e-05 0.0181473)
(0.39364 0.000228956 0.017447)
(0.385185 0.000293678 0.0160053)
(0.375437 0.000360991 0.0140579)
(0.365599 0.000472808 0.0112284)
(0.363269 0.000511802 0.00727949)
(0.375966 0.000349155 0.00346028)
(0.396776 9.63212e-05 0.00175724)
(0.411394 -2.71321e-05 0.00205738)
(0.416068 7.93935e-06 0.00261257)
(0.415431 8.12639e-05 0.00233934)
(0.414425 0.000114549 0.00145032)
(0.414395 0.000115551 0.000452178)
(0.414592 0.000114695 -0.000487813)
(0.414819 0.000113755 -0.00146732)
(0.415805 8.25449e-05 -0.00235791)
(0.416348 9.71784e-06 -0.00265209)
(0.411614 -3.18251e-05 -0.00209823)
(0.396785 8.53319e-05 -0.00169227)
(0.375572 0.000347552 -0.00330159)
(0.362519 0.000524668 -0.00719564)
(0.36504 0.000484998 -0.0112776)
(0.375406 0.000362409 -0.0141553)
(0.385545 0.000288713 -0.0160803)
(0.394115 0.000222704 -0.0174893)
(0.401853 6.71487e-05 -0.018155)
(0.407081 -0.000161096 -0.0177167)
(0.407635 -0.000366991 -0.0163771)
(0.40318 -0.000492803 -0.014589)
(0.394623 -0.000524225 -0.0127609)
(0.383415 -0.000476208 -0.0111643)
(0.371171 -0.000397326 -0.00991663)
(0.359063 -0.000362787 -0.00896576)
(0.347205 -0.000443273 -0.00814586)
(0.334532 -0.000668975 -0.00725867)
(0.319321 -0.000992912 -0.00617431)
(0.300137 -0.00129651 -0.0048983)
(0.276589 -0.00144166 -0.00355922)
(0.249517 -0.00135494 -0.00234553)
(0.220579 -0.00107931 -0.00140916)
(0.191571 -0.000740371 -0.000801665)
(0.163899 -0.000459929 -0.000471793)
(0.138404 -0.000292058 -0.000319649)
(0.115443 -0.000225392 -0.000251683)
(0.0950703 -0.000217131 -0.000208516)
(0.0771675 -0.000225852 -0.000167295)
(0.0615375 -0.000227717 -0.000125833)
(0.0479498 -0.00021495 -8.77964e-05)
(0.0361703 -0.000188562 -5.59955e-05)
(0.0259783 -0.000152462 -3.16698e-05)
(0.017174 -0.000110711 -1.47983e-05)
(0.00957941 -6.66452e-05 -4.6507e-06)
(0.00303689 -2.27251e-05 -2.60081e-07)
(0.00369346 -3.25717e-05 2.45742e-07)
(0.0116615 -9.35245e-05 3.92219e-06)
(0.0209256 -0.00015235 1.20316e-05)
(0.0316844 -0.000205348 2.47778e-05)
(0.0441638 -0.000247797 4.17117e-05)
(0.0586176 -0.00027421 6.11174e-05)
(0.0753242 -0.000279532 7.92494e-05)
(0.09457 -0.000263139 8.97912e-05)
(0.116614 -0.000238754 8.41532e-05)
(0.141638 -0.000248803 5.90331e-05)
(0.169686 -0.000361172 3.87532e-05)
(0.200576 -0.000633796 0.00010238)
(0.233746 -0.00106372 0.00037755)
(0.268103 -0.00155334 0.000987415)
(0.301984 -0.0019283 0.00198492)
(0.333419 -0.00202985 0.00330349)
(0.360693 -0.00181933 0.0047745)
(0.383 -0.00140703 0.00620091)
(0.400818 -0.000977614 0.00745748)
(0.415697 -0.000684503 0.00854641)
(0.429473 -0.000583678 0.00960252)
(0.443286 -0.000629906 0.0108183)
(0.457035 -0.000728913 0.012342)
(0.469489 -0.000781751 0.0142082)
(0.478935 -0.000724108 0.0162841)
(0.483789 -0.00053719 0.0182862)
(0.483049 -0.000240853 0.0197878)
(0.477047 8.69355e-05 0.0203088)
(0.468195 0.00031647 0.0196087)
(0.458438 0.00041997 0.0180274)
(0.44724 0.000520938 0.0158258)
(0.43596 0.000675878 0.0126768)
(0.433167 0.000724493 0.00841536)
(0.447433 0.000492039 0.00434368)
(0.471009 0.000135298 0.00245591)
(0.487658 -4.08222e-05 0.00262327)
(0.493018 4.70057e-06 0.00307511)
(0.492312 0.000105751 0.00268736)
(0.491165 0.000152237 0.00166302)
(0.491121 0.000153746 0.000521025)
(0.491342 0.000152498 -0.000562104)
(0.491607 0.000151047 -0.00168471)
(0.49273 0.000107362 -0.00271106)
(0.493328 6.75144e-06 -0.00311777)
(0.487904 -4.79276e-05 -0.00266021)
(0.47102 0.000119876 -0.0023774)
(0.446983 0.000490315 -0.00417215)
(0.432311 0.000743 -0.00832693)
(0.43533 0.000693203 -0.0127279)
(0.447214 0.000523098 -0.0159293)
(0.458851 0.00041305 -0.0181096)
(0.468733 0.000307526 -0.0196566)
(0.477556 7.64627e-05 -0.0203188)
(0.483406 -0.000251884 -0.0197583)
(0.483911 -0.000545609 -0.0182265)
(0.478803 -0.000726868 -0.01621)
(0.469126 -0.000777398 -0.0141357)
(0.456495 -0.000717798 -0.0122844)
(0.442652 -0.000613176 -0.0107833)
(0.428828 -0.000563915 -0.00959342)
(0.415109 -0.000665921 -0.00856122)
(0.400324 -0.000963254 -0.00749006)
(0.382604 -0.00139863 -0.00624423)
(0.360385 -0.00181778 -0.00482203)
(0.333184 -0.00203479 -0.00335046)
(0.301805 -0.00193869 -0.00202822)
(0.267967 -0.00156787 -0.00102533)
(0.233643 -0.00108098 -0.00040938)
(0.200496 -0.000652453 -0.000128108)
(0.169624 -0.000380005 -5.87856e-05)
(0.141589 -0.000266803 -7.40559e-05)
(0.116575 -0.000255175 -9.5e-05)
(0.0945386 -0.000277523 -9.73215e-05)
(0.0752992 -0.000291668 -8.42525e-05)
(0.0585981 -0.000284067 -6.4267e-05)
(0.044149 -0.00025546 -4.35563e-05)
(0.0316737 -0.000210973 -2.57485e-05)
(0.0209185 -0.000156125 -1.24573e-05)
(0.0116576 -9.56523e-05 -4.04738e-06)
(0.0036922 -3.32518e-05 -2.51193e-07)
(0.0044444 -4.11804e-05 1.39198e-07)
(0.0140431 -0.000115585 1.30211e-06)
(0.0252174 -0.000183929 2.97289e-06)
(0.0382142 -0.000240826 3.76936e-06)
(0.0533149 -0.000279631 9.69314e-07)
(0.070836 -0.00029275 -1.02825e-05)
(0.0911196 -0.00027313 -3.79523e-05)
(0.1145 -0.000219895 -9.43092e-05)
(0.141237 -0.000153212 -0.000194693)