/*--------------------------------*- C++ -*----------------------------------*\
| =========                 |                                                 |
| \\      /  F ield         | OpenFOAM: The Open Source CFD Toolbox           |
|  \\    /   O peration     | Version:  2212                                  |
|   \\  /    A nd           | Website:  www.openfoam.com                      |
|    \\/     M anipulation  |                                                 |
\*---------------------------------------------------------------------------*/
FoamFile
{
    version     2.0;
    format      ascii;
    arch        "LSB;label=32;scalar=64";
    class       volScalarField;
    location    "0";
    object      V;
}
// * * * * * * * * * * * * * * * * * * * * * * * * * * * * * * * * * * * * * //

dimensions      [0 3 0 0 0 0 0];

internalField   nonuniform List<scalar> 
4800
(
7.20721e-07
8.44178e-07
9.88673e-07
1.15775e-06
1.35553e-06
1.58682e-06
1.85718e-06
2.17306e-06
2.54195e-06
2.97245e-06
3.4745e-06
4.05947e-06
4.74038e-06
5.53204e-06
6.45118e-06
7.51661e-06
8.74929e-06
1.01723e-05
1.1811e-05
1.36921e-05
1.58441e-05
1.8296e-05
2.10763e-05
2.42115e-05
2.77243e-05
3.16305e-05
3.59367e-05
4.06358e-05
4.57034e-05
5.10938e-05
5.67362e-05
6.2532e-05
6.83539e-05
7.40478e-05
7.94371e-05
8.43318e-05
8.85396e-05
9.18802e-05
9.4201e-05
9.53907e-05
9.53907e-05
9.4201e-05
9.18802e-05
8.85396e-05
8.43318e-05
7.94371e-05
7.40478e-05
6.83539e-05
6.2532e-05
5.67362e-05
5.10938e-05
4.57034e-05
4.06358e-05
3.59367e-05
3.16305e-05
2.77243e-05
2.42115e-05
2.10763e-05
1.8296e-05
1.58441e-05
1.36921e-05
1.1811e-05
1.01723e-05
8.74929e-06
7.51661e-06
6.45118e-06
5.53204e-06
4.74038e-06
4.05947e-06
3.4745e-06
2.97245e-06
2.54195e-06
2.17306e-06
1.85718e-06
1.58682e-06
1.35553e-06
1.15775e-06
9.88673e-07
8.44178e-07
7.20721e-07
8.5678e-07
1.00354e-06
1.17532e-06
1.37631e-06
1.61143e-06
1.88638e-06
2.20778e-06
2.5833e-06
3.02182e-06
3.5336e-06
4.13042e-06
4.82583e-06
5.63528e-06
6.57639e-06
7.66905e-06
8.93561e-06
1.0401e-05
1.20927e-05
1.40407e-05
1.62769e-05
1.88352e-05
2.175e-05
2.50552e-05
2.87823e-05
3.29581e-05
3.76018e-05
4.27209e-05
4.83071e-05
5.43314e-05
6.07394e-05
6.7447e-05
7.43369e-05
8.12579e-05
8.80267e-05
9.44335e-05
0.000100252
0.000105254
0.000109226
0.000111984
0.000113399
0.000113399
0.000111984
0.000109226
0.000105254
0.000100252
9.44335e-05
8.80267e-05
8.12579e-05
7.43369e-05
6.7447e-05
6.07394e-05
5.43314e-05
4.83071e-05
4.27209e-05
3.76018e-05
3.29581e-05
2.87823e-05
2.50552e-05
2.175e-05
1.88352e-05
1.62769e-05
1.40407e-05
1.20927e-05
1.0401e-05
8.93561e-06
7.66905e-06
6.57639e-06
5.63528e-06
4.82583e-06
4.13042e-06
3.5336e-06
3.02182e-06
2.5833e-06
2.20778e-06
1.88638e-06
1.61143e-06
1.37631e-06
1.17532e-06
1.00354e-06
8.5678e-07
1.0181e-06
1.1925e-06
1.39662e-06
1.63546e-06
1.91485e-06
2.24157e-06
2.62348e-06
3.06971e-06
3.5908e-06
4.19894e-06
4.90814e-06
5.73448e-06
6.69635e-06
7.81466e-06
9.11305e-06
1.06181e-05
1.23594e-05
1.43696e-05
1.66844e-05
1.93417e-05
2.23817e-05
2.58453e-05
2.97728e-05
3.42017e-05
3.91638e-05
4.46819e-05
5.07648e-05
5.74028e-05
6.45614e-05
7.2176e-05
8.01466e-05
8.83338e-05
9.6558e-05
0.000104601
0.000112214
0.000119129
0.000125073
0.000129792
0.00013307
0.000134751
0.000134751
0.00013307
0.000129792
0.000125073
0.000119129
0.000112214
0.000104601
9.6558e-05
8.83338e-05
8.01466e-05
7.2176e-05
6.45614e-05
5.74028e-05
5.07648e-05
4.46819e-05
3.91638e-05
3.42017e-05
2.97728e-05
2.58453e-05
2.23817e-05
1.93417e-05
1.66844e-05
1.43696e-05
1.23594e-05
1.06181e-05
9.11305e-06
7.81466e-06
6.69635e-06
5.73448e-06
4.90814e-06
4.19894e-06
3.5908e-06
3.06971e-06
2.62348e-06
2.24157e-06
1.91485e-06
1.63546e-06
1.39662e-06
1.1925e-06
1.0181e-06
1.20921e-06
1.41634e-06
1.65877e-06
1.94244e-06
2.27428e-06
2.66232e-06
3.11592e-06
3.64591e-06
4.26481e-06
4.9871e-06
5.82942e-06
6.81088e-06
7.9533e-06
9.28152e-06
1.08236e-05
1.26112e-05
1.46793e-05
1.70669e-05
1.98161e-05
2.29723e-05
2.65829e-05
3.06966e-05
3.53613e-05
4.06215e-05
4.65151e-05
5.30689e-05
6.02937e-05
6.81776e-05
7.668e-05
8.57239e-05
9.51905e-05
0.000104915
0.000114682
0.000124235
0.000133278
0.00014149
0.000148549
0.000154154
0.000158048
0.000160044
0.000160044
0.000158048
0.000154154
0.000148549
0.00014149
0.000133278
0.000124235
0.000114682
0.000104915
9.51905e-05
8.57239e-05
7.668e-05
6.81776e-05
6.02937e-05
5.30689e-05
4.65151e-05
4.06215e-05
3.53613e-05
3.06966e-05
2.65829e-05
2.29723e-05
1.98161e-05
1.70669e-05
1.46793e-05
1.26112e-05
1.08236e-05
9.28152e-06
7.9533e-06
6.81088e-06
5.82942e-06
4.9871e-06
4.26481e-06
3.64591e-06
3.11592e-06
2.66232e-06
2.27428e-06
1.94244e-06
1.65877e-06
1.41634e-06
1.20921e-06
1.43534e-06
1.68121e-06
1.96898e-06
2.3057e-06
2.69959e-06
3.16021e-06
3.69864e-06
4.32774e-06
5.06238e-06
5.91975e-06
6.91959e-06
8.08459e-06
9.44066e-06
1.10173e-05
1.28478e-05
1.49696e-05
1.74246e-05
2.02586e-05
2.3522e-05
2.72683e-05
3.15542e-05
3.64373e-05
4.19743e-05
4.82182e-05
5.52139e-05
6.29934e-05
7.15693e-05
8.09277e-05
9.102e-05
0.000101755
0.000112992
0.000124535
0.000136129
0.000147469
0.000158202
0.00016795
0.00017633
0.000182983
0.000187605
0.000189974
0.000189974
0.000187605
0.000182983
0.00017633
0.00016795
0.000158202
0.000147469
0.000136129
0.000124535
0.000112992
0.000101755
9.102e-05
8.09277e-05
7.15693e-05
6.29934e-05
5.52139e-05
4.82182e-05
4.19743e-05
3.64373e-05
3.15542e-05
2.72683e-05
2.3522e-05
2.02586e-05
1.74246e-05
1.49696e-05
1.28478e-05
1.10173e-05
9.44066e-06
8.08459e-06
6.91959e-06
5.91975e-06
5.06238e-06
4.32774e-06
3.69864e-06
3.16021e-06
2.69959e-06
2.3057e-06
1.96898e-06
1.68121e-06
1.43534e-06
1.70259e-06
1.99424e-06
2.33558e-06
2.735e-06
3.20223e-06
3.7486e-06
4.38728e-06
5.13351e-06
6.00494e-06
7.02194e-06
8.20794e-06
9.58985e-06
1.11984e-05
1.30686e-05
1.52399e-05
1.77568e-05
2.06688e-05
2.40306e-05
2.79015e-05
3.23454e-05
3.74293e-05
4.32215e-05
4.97895e-05
5.71959e-05
6.54942e-05
7.47221e-05
8.48947e-05
9.59955e-05
0.000107967
0.000120701
0.00013403
0.000147722
0.000161475
0.000174926
0.000187658
0.000199221
0.000209161
0.000217052
0.000222535
0.000225345
0.000225345
0.000222535
0.000217052
0.000209161
0.000199221
0.000187658
0.000174926
0.000161475
0.000147722
0.00013403
0.000120701
0.000107967
9.59955e-05
8.48947e-05
7.47221e-05
6.54942e-05
5.71959e-05
4.97895e-05
4.32215e-05
3.74293e-05
3.23454e-05
2.79015e-05
2.40306e-05
2.06688e-05
1.77568e-05
1.52399e-05
1.30686e-05
1.11984e-05
9.58985e-06
8.20794e-06
7.02194e-06
6.00494e-06
5.13351e-06
4.38728e-06
3.7486e-06
3.20223e-06
2.735e-06
2.33558e-06
1.99424e-06
1.70259e-06
2.01793e-06
2.3636e-06
2.76816e-06
3.24156e-06
3.79532e-06
4.44289e-06
5.19986e-06
6.08431e-06
7.11714e-06
8.3225e-06
9.72817e-06
1.1366e-05
1.32725e-05
1.5489e-05
1.80625e-05
2.10456e-05
2.4497e-05
2.84813e-05
3.30692e-05
3.83362e-05
4.43617e-05
5.12267e-05
5.90111e-05
6.77894e-05
7.76246e-05
8.85617e-05
0.000100618
0.000113775
0.000127964
0.000143056
0.000158854
0.000175082
0.000191383
0.000207325
0.000222414
0.000236119
0.0002479
0.000257253
0.000263751
0.000267082
0.000267082
0.000263751
0.000257253
0.0002479
0.000236119
0.000222414
0.000207325
0.000191383
0.000175082
0.000158854
0.000143056
0.000127964
0.000113775
0.000100618
8.85617e-05
7.76246e-05
6.77894e-05
5.90111e-05
5.12267e-05
4.43617e-05
3.83362e-05
3.30692e-05
2.84813e-05
2.4497e-05
2.10456e-05
1.80625e-05
1.5489e-05
1.32725e-05
1.1366e-05
9.72817e-06
8.3225e-06
7.11714e-06
6.08431e-06
5.19987e-06
4.44289e-06
3.79532e-06
3.24156e-06
2.76816e-06
2.3636e-06
2.01793e-06
2.38935e-06
2.79864e-06
3.27767e-06
3.83819e-06
4.49389e-06
5.26065e-06
6.15695e-06
7.20418e-06
8.42711e-06
9.85433e-06
1.15187e-05
1.3458e-05
1.57154e-05
1.83399e-05
2.13871e-05
2.49192e-05
2.90058e-05
3.37236e-05
3.91559e-05
4.53923e-05
5.25268e-05
6.06554e-05
6.98727e-05
8.02666e-05
9.19121e-05
0.000104862
0.000119138
0.000134717
0.000151517
0.000169387
0.000188093
0.000207307
0.000226608
0.000245485
0.000263352
0.000279579
0.000293528
0.000304603
0.000312297
0.000316241
0.000316241
0.000312297
0.000304603
0.000293528
0.000279579
0.000263352
0.000245485
0.000226608
0.000207307
0.000188093
0.000169387
0.000151517
0.000134717
0.000119138
0.000104862
9.19121e-05
8.02666e-05
6.98727e-05
6.06554e-05
5.25268e-05
4.53923e-05
3.91559e-05
3.37236e-05
2.90058e-05
2.49192e-05
2.13871e-05
1.83399e-05
1.57154e-05
1.3458e-05
1.15187e-05
9.85433e-06
8.42711e-06
7.20418e-06
6.15695e-06
5.26065e-06
4.49389e-06
3.83819e-06
3.27767e-06
2.79864e-06
2.38935e-06
2.82587e-06
3.30993e-06
3.87648e-06
4.5394e-06
5.31489e-06
6.22173e-06
7.28178e-06
8.52033e-06
9.96669e-06
1.16546e-05
1.36231e-05
1.59167e-05
1.85865e-05
2.16905e-05
2.52944e-05
2.94718e-05
3.4305e-05
3.98846e-05
4.63094e-05
5.36852e-05
6.21231e-05
7.17367e-05
8.26379e-05
9.49308e-05
0.000108704
0.00012402
0.000140904
0.000159328
0.000179198
0.000200333
0.000222456
0.000245181
0.000268008
0.000290333
0.000311464
0.000330656
0.000347154
0.000360252
0.000369352
0.000374016
0.000374016
0.000369352
0.000360252
0.000347154
0.000330656
0.000311464
0.000290333
0.000268008
0.000245181
0.000222456
0.000200333
0.000179198
0.000159328
0.000140904
0.00012402
0.000108704
9.49308e-05
8.26379e-05
7.17367e-05
6.21231e-05
5.36852e-05
4.63094e-05
3.98846e-05
3.4305e-05
2.94718e-05
2.52943e-05
2.16905e-05
1.85865e-05
1.59167e-05
1.36231e-05
1.16546e-05
9.96669e-06
8.52033e-06
7.28178e-06
6.22173e-06
5.31489e-06
4.53941e-06
3.87648e-06
3.30993e-06
2.82587e-06
3.33757e-06
3.90929e-06
4.57843e-06
5.3614e-06
6.27731e-06
7.34836e-06
8.60036e-06
1.00632e-05
1.17715e-05
1.37651e-05
1.609e-05
1.87989e-05
2.19522e-05
2.56182e-05
2.98746e-05
3.48085e-05
4.05169e-05
4.71069e-05
5.46951e-05
6.34065e-05
7.33723e-05
8.47268e-05
9.7602e-05
0.000112121
0.000128388
0.000146477
0.000166419
0.000188179
0.000211647
0.000236609
0.000262739
0.000289578
0.000316539
0.000342906
0.000367864
0.000390531
0.000410016
0.000425487
0.000436234
0.000441743
0.000441743
0.000436234
0.000425487
0.000410016
0.000390531
0.000367864
0.000342906
0.000316539
0.000289578
0.000262739
0.000236609
0.000211647
0.000188179
0.000166419
0.000146477
0.000128388
0.000112121
9.7602e-05
8.47268e-05
7.33723e-05
6.34065e-05
5.46951e-05
4.71069e-05
4.05169e-05
3.48085e-05
2.98746e-05
2.56182e-05
2.19522e-05
1.87989e-05
1.609e-05
1.37651e-05
1.17715e-05
1.00632e-05
8.60036e-06
7.34836e-06
6.27731e-06
5.3614e-06
4.57843e-06
3.90929e-06
3.33757e-06
3.93559e-06
4.60975e-06
5.39878e-06
6.32204e-06
7.40206e-06
8.66502e-06
1.01413e-05
1.18663e-05
1.38806e-05
1.62315e-05
1.89729e-05
2.21673e-05
2.58855e-05
3.02084e-05
3.52275e-05
4.10454e-05
4.77767e-05
5.55475e-05
6.44953e-05
7.47675e-05
8.6519e-05
9.9908e-05
0.00011509
0.00013221
0.000151392
0.000172723
0.000196237
0.000221897
0.000249569
0.000279004
0.000309815
0.000341464
0.000373256
0.000404348
0.000433777
0.000460505
0.000483482
0.000501724
0.000514397
0.000520894
0.000520894
0.000514397
0.000501724
0.000483482
0.000460505
0.000433777
0.000404348
0.000373256
0.000341464
0.000309815
0.000279004
0.000249569
0.000221897
0.000196237
0.000172723
0.000151392
0.00013221
0.00011509
9.99079e-05
8.6519e-05
7.47675e-05
6.44953e-05
5.55475e-05
4.77767e-05
4.10454e-05
3.52275e-05
3.02084e-05
2.58855e-05
2.21673e-05
1.89729e-05
1.62315e-05
1.38806e-05
1.18663e-05
1.01414e-05
8.66502e-06
7.40206e-06
6.32204e-06
5.39878e-06
4.60975e-06
3.93559e-06
4.63195e-06
5.42539e-06
6.35403e-06
7.44066e-06
8.71177e-06
1.01982e-05
1.19357e-05
1.39659e-05
1.63367e-05
1.91034e-05
2.233e-05
2.60895e-05
3.04656e-05
3.55535e-05
4.14606e-05
4.8308e-05
5.62302e-05
6.5376e-05
7.5907e-05
8.79968e-05
0.000101828
0.000117586
0.000135454
0.000155603
0.000178179
0.000203284
0.000230959
0.000261159
0.000293728
0.000328371
0.000364634
0.000401882
0.000439299
0.000475892
0.000510529
0.000541986
0.000569029
0.000590499
0.000605414
0.00061306
0.00061306
0.000605414
0.000590499
0.000569029
0.000541986
0.000510529
0.000475892
0.000439299
0.000401882
0.000364634
0.000328371
0.000293728
0.000261159
0.000230959
0.000203284
0.000178179
0.000155603
0.000135454
0.000117586
0.000101828
8.79968e-05
7.5907e-05
6.5376e-05
5.62302e-05
4.8308e-05
4.14606e-05
3.55535e-05
3.04656e-05
2.60895e-05
2.233e-05
1.91034e-05
1.63367e-05
1.39659e-05
1.19358e-05
1.01982e-05
8.71177e-06
7.44066e-06
6.35403e-06
5.42539e-06
4.63195e-06
5.43934e-06
6.37109e-06
7.4616e-06
8.73764e-06
1.02303e-05
1.19759e-05
1.40163e-05
1.64003e-05
1.91843e-05
2.24333e-05
2.62223e-05
3.06372e-05
3.57761e-05
4.17508e-05
4.86876e-05
5.67285e-05
6.60317e-05
7.67716e-05
8.91383e-05
0.000103336
0.000119577
0.000138082
0.000159065
0.000182727
0.000209238
0.000238719
0.000271218
0.000306682
0.000344927
0.000385609
0.000428193
0.000471934
0.000515873
0.000558845
0.000599519
0.00063646
0.000668216
0.000693428
0.000710943
0.000719922
0.000719922
0.000710943
0.000693428
0.000668216
0.00063646
0.000599519
0.000558845
0.000515873
0.000471934
0.000428193
0.000385609
0.000344927
0.000306682
0.000271218
0.000238719
0.000209238
0.000182727
0.000159065
0.000138082
0.000119577
0.000103336
8.91383e-05
7.67716e-05
6.60317e-05
5.67285e-05
4.86876e-05
4.17508e-05
3.57761e-05
3.06372e-05
2.62223e-05
2.24334e-05
1.91843e-05
1.64003e-05
1.40163e-05
1.19758e-05
1.02303e-05
8.73764e-06
7.46161e-06
6.37109e-06
5.43934e-06
6.37073e-06
7.46201e-06
8.73926e-06
1.02338e-05
1.19821e-05
1.40265e-05
1.64163e-05
1.92085e-05
2.24692e-05
2.62746e-05
3.07124e-05
3.58832e-05
4.19021e-05
4.88998e-05
5.70244e-05
6.64422e-05
7.73384e-05
8.99173e-05
0.000104402
0.00012103
0.000140052
0.000161726
0.000186302
0.000214015
0.000245065
0.000279594
0.000317658
0.000359195
0.00040399
0.000451638
0.000501513
0.000552744
0.000604206
0.000654536
0.000702175
0.000745441
0.000782635
0.000812165
0.000832679
0.000843195
0.000843195
0.000832679
0.000812165
0.000782635
0.000745441
0.000702175
0.000654536
0.000604206
0.000552744
0.000501513
0.000451638
0.00040399
0.000359195
0.000317658
0.000279594
0.000245065
0.000214015
0.000186302
0.000161726
0.000140052
0.00012103
0.000104402
8.99173e-05
7.73384e-05
6.64422e-05
5.70244e-05
4.88998e-05
4.19021e-05
3.58832e-05
3.07124e-05
2.62746e-05
2.24692e-05
1.92085e-05
1.64163e-05
1.40265e-05
1.19821e-05
1.02338e-05
8.73926e-06
7.46201e-06
6.37073e-06
7.43869e-06
8.71291e-06
1.02043e-05
1.19493e-05
1.39907e-05
1.63778e-05
1.91682e-05
2.24286e-05
2.62359e-05
3.06792e-05
3.58609e-05
4.18985e-05
4.89263e-05
5.70972e-05
6.65837e-05
7.75803e-05
9.0303e-05
0.000104991
0.000121903
0.000141319
0.00016353
0.000188837
0.000217532
0.000249892
0.000286147
0.000326464
0.000370909
0.000419409
0.000471713
0.000527348
0.000585584
0.000645403
0.000705493
0.00076426
0.000819885
0.000870404
0.000913833
0.000948312
0.000972265
0.000984544
0.000984544
0.000972265
0.000948312
0.000913833
0.000870404
0.000819885
0.00076426
0.000705493
0.000645403
0.000585584
0.000527348
0.000471713
0.000419409
0.000370909
0.000326464
0.000286147
0.000249892
0.000217532
0.000188837
0.00016353
0.000141319
0.000121903
0.000104991
9.0303e-05
7.75803e-05
6.65837e-05
5.70972e-05
4.89263e-05
4.18985e-05
3.58609e-05
3.06792e-05
2.62359e-05
2.24286e-05
1.91682e-05
1.63778e-05
1.39907e-05
1.19493e-05
1.02043e-05
8.71291e-06
7.43869e-06
8.65456e-06
1.01371e-05
1.18722e-05
1.39025e-05
1.62775e-05
1.90548e-05
2.23013e-05
2.60945e-05
3.05242e-05
3.56938e-05
4.17224e-05
4.87469e-05
5.69235e-05
6.64298e-05
7.7467e-05
9.02609e-05
0.000105063
0.000122152
0.000141828
0.000164417
0.00019026
0.000219702
0.000253089
0.000290737
0.000332918
0.000379826
0.000431535
0.000487962
0.000548815
0.000613544
0.000681299
0.000750896
0.000820807
0.00088918
0.000953897
0.00101267
0.0010632
0.00110332
0.00113118
0.00114547
0.00114547
0.00113118
0.00110332
0.0010632
0.00101267
0.000953897
0.00088918
0.000820807
0.000750896
0.000681299
0.000613544
0.000548815
0.000487962
0.000431535
0.000379826
0.000332918
0.000290737
0.000253089
0.000219702
0.00019026
0.000164417
0.000141828
0.000122152
0.000105063
9.02609e-05
7.7467e-05
6.64298e-05
5.69235e-05
4.87469e-05
4.17224e-05
3.56938e-05
3.05242e-05
2.60945e-05
2.23013e-05
1.90548e-05
1.62775e-05
1.39025e-05
1.18722e-05
1.01371e-05
8.65456e-06
1.00272e-05
1.17449e-05
1.37552e-05
1.61075e-05
1.88592e-05
2.2077e-05
2.58384e-05
3.02333e-05
3.53655e-05
4.1355e-05
4.83398e-05
5.64785e-05
6.59519e-05
7.6966e-05
8.97537e-05
0.000104577
0.000121727
0.000141525
0.000164323
0.000190495
0.000220436
0.000254549
0.00029323
0.000336849
0.000385721
0.000440068
0.000499979
0.000565356
0.00063586
0.000710856
0.000789357
0.000869993
0.000950992
0.00103021
0.00110519
0.00117329
0.00123183
0.00127831
0.0013106
0.00132715
0.00132715
0.0013106
0.00127831
0.00123183
0.00117329
0.00110519
0.00103021
0.000950992
0.000869993
0.000789357
0.000710856
0.00063586
0.000565356
0.000499979
0.000440068
0.000385721
0.00033685
0.00029323
0.000254548
0.000220436
0.000190495
0.000164323
0.000141525
0.000121727
0.000104577
8.97537e-05
7.6966e-05
6.59519e-05
5.64785e-05
4.83398e-05
4.1355e-05
3.53655e-05
3.02333e-05
2.58384e-05
2.2077e-05
1.88592e-05
1.61075e-05
1.37552e-05
1.17448e-05
1.00272e-05
1.15616e-05
1.3542e-05
1.586e-05
1.85722e-05
2.1745e-05
2.54552e-05
2.97922e-05
3.48595e-05
4.0777e-05
4.7683e-05
5.57367e-05
6.51207e-05
7.60437e-05
8.87431e-05
0.000103488
0.000120579
0.000140353
0.000163181
0.000189467
0.000219644
0.000254166
0.000293499
0.000338099
0.000388393
0.000444743
0.000507407
0.000576484
0.000651865
0.000733158
0.00081963
0.000910143
0.00100312
0.00109651
0.00118785
0.0012743
0.00135282
0.00142032
0.00147391
0.00151114
0.00153023
0.00153023
0.00151114
0.00147391
0.00142032
0.00135282
0.0012743
0.00118785
0.00109651
0.00100312
0.000910143
0.00081963
0.000733158
0.000651865
0.000576484
0.000507407
0.000444743
0.000388393
0.000338099
0.000293499
0.000254166
0.000219644
0.000189467
0.000163181
0.000140353
0.000120579
0.000103488
8.87431e-05
7.60437e-05
6.51207e-05
5.57367e-05
4.7683e-05
4.0777e-05
3.48595e-05
2.97922e-05
2.54552e-05
2.1745e-05
1.85722e-05
1.586e-05
1.3542e-05
1.15616e-05
1.32566e-05
1.55274e-05
1.81852e-05
2.12951e-05
2.4933e-05
2.91872e-05
3.416e-05
3.99703e-05
4.67554e-05
5.46739e-05
6.39083e-05
7.4668e-05
8.71924e-05
0.000101754
0.00011866
0.000138257
0.00016093
0.000187105
0.000217245
0.000251846
0.00029143
0.000336529
0.000387668
0.000445336
0.000509947
0.000581798
0.000661003
0.000747435
0.000840647
0.000939796
0.00104358
0.00115018
0.00125727
0.001362
0.00146113
0.00155116
0.00162856
0.00169
0.00173269
0.00175457
0.00175457
0.00173269
0.00169
0.00162856
0.00155116
0.00146113
0.001362
0.00125727
0.00115018
0.00104358
0.000939796
0.000840647
0.000747435
0.000661003
0.000581798
0.000509947
0.000445336
0.000387668
0.000336529
0.00029143
0.000251846
0.000217245
0.000187105
0.00016093
0.000138257
0.00011866
0.000101754
8.71924e-05
7.4668e-05
6.39083e-05
5.46739e-05
4.67554e-05
3.99703e-05
3.416e-05
2.91872e-05
2.4933e-05
2.12951e-05
1.81852e-05
1.55274e-05
1.32566e-05
1.51034e-05
1.76906e-05
2.07186e-05
2.42617e-05
2.84064e-05
3.32533e-05
3.89189e-05
4.55386e-05
5.32689e-05
6.22905e-05
7.28114e-05
8.50701e-05
9.93393e-05
0.000115929
0.000135191
0.000157518
0.00018335
0.000213171
0.00024751
0.000286931
0.000332029
0.000383411
0.000441674
0.000507376
0.000580988
0.000662848
0.000753088
0.000851561
0.000957758
0.00107072
0.00118896
0.00131042
0.00143242
0.00155174
0.00166468
0.00176725
0.00185543
0.00192544
0.00197407
0.001999
0.001999
0.00197407
0.00192544
0.00185543
0.00176725
0.00166468
0.00155174
0.00143242
0.00131042
0.00118896
0.00107072
0.000957758
0.000851561
0.000753088
0.000662848
0.000580988
0.000507376
0.000441674
0.000383411
0.000332029
0.000286931
0.00024751
0.000213171
0.00018335
0.000157518
0.000135191
0.000115929
9.93393e-05
8.50701e-05
7.28114e-05
6.22905e-05
5.32689e-05
4.55386e-05
3.89189e-05
3.32532e-05
2.84065e-05
2.42617e-05
2.07186e-05
1.76906e-05
1.51034e-05
1.70827e-05
2.0009e-05
2.34338e-05
2.74413e-05
3.21292e-05
3.76112e-05
4.40193e-05
5.15066e-05
6.025e-05
7.04539e-05
8.23536e-05
9.62188e-05
0.000112358
0.000131122
0.000152908
0.000178161
0.000207378
0.000241108
0.000279947
0.000324534
0.000375543
0.000433658
0.000499557
0.000573869
0.000657129
0.000749717
0.000851783
0.000963161
0.00108328
0.00121104
0.00134478
0.00148215
0.00162015
0.0017551
0.00188284
0.00199886
0.00209859
0.00217777
0.00223278
0.00226098
0.00226098
0.00223278
0.00217777
0.00209859
0.00199886
0.00188284
0.0017551
0.00162015
0.00148215
0.00134478
0.00121104
0.00108328
0.000963161
0.000851783
0.000749717
0.000657129
0.000573869
0.000499558
0.000433658
0.000375543
0.000324534
0.000279947
0.000241108
0.000207378
0.000178161
0.000152908
0.000131122
0.000112358
9.62188e-05
8.23536e-05
7.04539e-05
6.025e-05
5.15066e-05
4.40193e-05
3.76112e-05
3.21292e-05
2.74413e-05
2.34338e-05
2.0009e-05
1.70827e-05
1.91633e-05
2.24459e-05
2.62879e-05
3.07834e-05
3.60423e-05
4.21919e-05
4.93805e-05
5.77796e-05
6.75879e-05
7.90346e-05
9.23835e-05
0.000107937
0.000126042
0.000147092
0.000171531
0.000199859
0.000232635
0.000270473
0.000314042
0.00036406
0.000421281
0.000486474
0.000560399
0.000643762
0.000737162
0.000841026
0.000955523
0.00108047
0.00121521
0.00135854
0.00150856
0.00166267
0.00181746
0.00196886
0.00211216
0.0022423
0.00235418
0.00244301
0.00250471
0.00253635
0.00253635
0.00250471
0.00244301
0.00235418
0.0022423
0.00211216
0.00196886
0.00181746
0.00166267
0.00150856
0.00135854
0.00121521
0.00108047
0.000955523
0.000841026
0.000737162
0.000643762
0.000560399
0.000486474
0.000421281
0.00036406
0.000314042
0.000270473
0.000232635
0.000199859
0.000171531
0.000147092
0.000126042
0.000107937
9.23835e-05
7.90346e-05
6.75879e-05
5.77796e-05
4.93805e-05
4.21919e-05
3.60423e-05
3.07834e-05
2.62879e-05
2.24459e-05
1.91633e-05
2.12999e-05
2.49485e-05
2.92189e-05
3.42157e-05
4.00609e-05
4.68962e-05
5.48863e-05
6.42219e-05
7.51238e-05
8.78467e-05
0.000102684
0.000119972
0.000140096
0.000163492
0.000190656
0.000222143
0.000258573
0.00030063
0.000349057
0.000404651
0.000468252
0.000540715
0.000622882
0.000715539
0.000819353
0.000934797
0.00106206
0.00120093
0.0013507
0.00151001
0.00167676
0.00184805
0.00202011
0.00218838
0.00234766
0.00249231
0.00261667
0.00271539
0.00278398
0.00281914
0.00281914
0.00278398
0.00271539
0.00261667
0.00249231
0.00234766
0.00218838
0.00202011
0.00184805
0.00167676
0.00151001
0.0013507
0.00120093
0.00106206
0.000934797
0.000819353
0.000715539
0.000622882
0.000540714
0.000468252
0.000404651
0.000349057
0.00030063
0.000258573
0.000222143
0.000190656
0.000163492
0.000140096
0.000119972
0.000102684
8.78467e-05
7.51237e-05
6.42219e-05
5.48863e-05
4.68962e-05
4.00609e-05
3.42157e-05
2.92189e-05
2.49485e-05
2.12999e-05
2.34335e-05
2.74476e-05
3.21457e-05
3.76431e-05
4.40738e-05
5.15938e-05
6.03843e-05
7.0655e-05
8.26489e-05
9.66463e-05
0.00011297
0.00013199
0.000154129
0.000179869
0.000209754
0.000244395
0.000284475
0.000330744
0.000384022
0.000445185
0.000515157
0.000594878
0.000685276
0.000787215
0.000901428
0.00102844
0.00116845
0.00132123
0.001486
0.00166127
0.00184472
0.00203317
0.00222246
0.00240759
0.00258282
0.00274197
0.00287878
0.0029874
0.00306285
0.00310154
0.00310154
0.00306285
0.0029874
0.00287878
0.00274197
0.00258282
0.00240759
0.00222246
0.00203317
0.00184472
0.00166127
0.001486
0.00132123
0.00116845
0.00102844
0.000901428
0.000787215
0.000685276
0.000594878
0.000515157
0.000445185
0.000384022
0.000330744
0.000284475
0.000244395
0.000209754
0.000179869
0.000154129
0.00013199
0.00011297
9.66464e-05
8.26489e-05
7.0655e-05
6.03843e-05
5.15938e-05
4.40738e-05
3.76431e-05
3.21458e-05
2.74476e-05
2.34335e-05
2.54922e-05
2.98589e-05
3.49697e-05
4.095e-05
4.79456e-05
5.61263e-05
6.5689e-05
7.6862e-05
8.99096e-05
0.000105137
0.000122894
0.000143585
0.000167669
0.00019567
0.000228181
0.000265865
0.000309466
0.0003598
0.000417758
0.000484295
0.000560413
0.000647138
0.000745477
0.000856371
0.000980618
0.00111878
0.00127109
0.0014373
0.00161655
0.00180721
0.00200678
0.00221178
0.0024177
0.0026191
0.00280972
0.00298285
0.00313168
0.00324984
0.00333192
0.003374
0.003374
0.00333192
0.00324984
0.00313168
0.00298285
0.00280972
0.0026191
0.0024177
0.00221178
0.00200678
0.00180721
0.00161655
0.0014373
0.00127109
0.00111878
0.000980618
0.000856371
0.000745477
0.000647138
0.000560413
0.000484295
0.000417758
0.0003598
0.000309466
0.000265865
0.000228181
0.00019567
0.000167669
0.000143585
0.000122894
0.000105137
8.99096e-05
7.6862e-05
6.5689e-05
5.61263e-05
4.79456e-05
4.095e-05
3.49697e-05
2.98589e-05
2.54922e-05
2.73941e-05
3.20866e-05
3.75788e-05
4.40052e-05
5.15228e-05
6.03138e-05
7.05899e-05
8.25966e-05
9.66176e-05
0.000112981
0.000132063
0.000154298
0.000180179
0.000210269
0.000245205
0.000285701
0.000332555
0.000386644
0.000448926
0.000520427
0.000602225
0.00069542
0.000801097
0.000920264
0.00105378
0.00120225
0.00136593
0.00154454
0.00173715
0.00194204
0.0021565
0.0023768
0.00259808
0.0028145
0.00301935
0.0032054
0.00336533
0.0034923
0.00358051
0.00362573
0.00362573
0.00358051
0.0034923
0.00336533
0.0032054
0.00301935
0.0028145
0.00259808
0.0023768
0.0021565
0.00194204
0.00173715
0.00154454
0.00136593
0.00120225
0.00105378
0.000920264
0.000801097
0.00069542
0.000602225
0.000520427
0.000448926
0.000386644
0.000332555
0.000285701
0.000245205
0.000210269
0.000180179
0.000154298
0.000132063
0.000112981
9.66176e-05
8.25966e-05
7.059e-05
6.03138e-05
5.15228e-05
4.40052e-05
3.75788e-05
3.20866e-05
2.73941e-05
2.90533e-05
3.403e-05
3.98548e-05
4.66705e-05
5.46434e-05
6.39668e-05
7.48653e-05
8.75991e-05
0.000102469
0.000119824
0.000140062
0.000163643
0.000191092
0.000223004
0.000260056
0.000303005
0.000352696
0.000410062
0.000476116
0.000551948
0.000638699
0.000737539
0.000849616
0.000976001
0.0011176
0.00127507
0.00144866
0.00163808
0.00184237
0.00205966
0.00228711
0.00252075
0.00275544
0.00298497
0.00320222
0.00339953
0.00356915
0.00370382
0.00379737
0.00384533
0.00384533
0.00379737
0.00370382
0.00356915
0.00339953
0.00320222
0.00298497
0.00275544
0.00252075
0.00228711
0.00205966
0.00184237
0.00163808
0.00144866
0.00127507
0.0011176
0.000976001
0.000849616
0.000737539
0.000638699
0.000551948
0.000476116
0.000410062
0.000352696
0.000303005
0.000260056
0.000223004
0.000191092
0.000163643
0.000140062
0.000119824
0.000102469
8.75991e-05
7.48653e-05
6.39668e-05
5.46434e-05
4.66705e-05
3.98548e-05
3.403e-05
2.90533e-05
3.03862e-05
3.55913e-05
4.16833e-05
4.88117e-05
5.71504e-05
6.69016e-05
7.83001e-05
9.16182e-05
0.000107171
0.000125321
0.000146488
0.000171151
0.000199859
0.000233236
0.000271987
0.000316907
0.000368878
0.000428875
0.00049796
0.000577271
0.000668003
0.000771377
0.000888596
0.00102078
0.00116888
0.00133357
0.00151512
0.00171324
0.00192689
0.00215416
0.00239205
0.0026364
0.00288186
0.00312192
0.00334914
0.0035555
0.00373291
0.00387375
0.0039716
0.00402176
0.00402176
0.0039716
0.00387375
0.00373291
0.0035555
0.00334914
0.00312192
0.00288186
0.0026364
0.00239205
0.00215416
0.00192689
0.00171324
0.00151512
0.00133357
0.00116888
0.00102078
0.000888596
0.000771377
0.000668003
0.000577271
0.00049796
0.000428875
0.000368878
0.000316907
0.000271987
0.000233236
0.000199859
0.000171151
0.000146488
0.000125321
0.000107171
9.16182e-05
7.83001e-05
6.69016e-05
5.71504e-05
4.88117e-05
4.16833e-05
3.55913e-05
3.03862e-05
3.13203e-05
3.66854e-05
4.29647e-05
5.03123e-05
5.89073e-05
6.89582e-05
8.07072e-05
9.44347e-05
0.000110465
0.000129174
0.000150991
0.000176412
0.000206003
0.000240406
0.000280349
0.000326649
0.000380218
0.000442059
0.000513268
0.000595017
0.000688538
0.00079509
0.000915913
0.00105216
0.00120481
0.00137457
0.0015617
0.00176591
0.00198613
0.00222038
0.00246558
0.00271745
0.00297045
0.00321789
0.0034521
0.00366481
0.00384766
0.00399284
0.00409369
0.00414539
0.00414539
0.00409369
0.00399284
0.00384766
0.00366481
0.0034521
0.00321789
0.00297045
0.00271745
0.00246558
0.00222038
0.00198613
0.00176591
0.0015617
0.00137457
0.00120481
0.00105216
0.000915913
0.00079509
0.000688538
0.000595017
0.000513268
0.000442059
0.000380218
0.000326649
0.000280349
0.000240406
0.000206003
0.000176412
0.000150991
0.000129174
0.000110465
9.44347e-05
8.07072e-05
6.89582e-05
5.89073e-05
5.03123e-05
4.29647e-05
3.66854e-05
3.13203e-05
3.18018e-05
3.72493e-05
4.36251e-05
5.10856e-05
5.98127e-05
7.00182e-05
8.19477e-05
9.58862e-05
0.000112163
0.000131159
0.000153312
0.000179124
0.000209169
0.000244101
0.000284658
0.00033167
0.000386062
0.000448854
0.000521158
0.000604163
0.000699122
0.000807312
0.000929991
0.00106833
0.00122333
0.0013957
0.0015857
0.00179305
0.00201666
0.00225451
0.00250348
0.00275922
0.00301611
0.00326735
0.00350516
0.00372114
0.0039068
0.00405421
0.00415661
0.00420911
0.00420911
0.00415661
0.00405421
0.0039068
0.00372114
0.00350516
0.00326735
0.00301611
0.00275922
0.00250348
0.00225451
0.00201666
0.00179305
0.0015857
0.0013957
0.00122333
0.00106833
0.000929991
0.000807312
0.000699122
0.000604163
0.000521158
0.000448854
0.000386062
0.00033167
0.000284658
0.000244101
0.000209169
0.000179124
0.000153312
0.000131159
0.000112163
9.58862e-05
8.19478e-05
7.00182e-05
5.98127e-05
5.10856e-05
4.36251e-05
3.72493e-05
3.18018e-05
3.18018e-05
3.72493e-05
4.36251e-05
5.10856e-05
5.98127e-05
7.00182e-05
8.19477e-05
9.58862e-05
0.000112163
0.000131159
0.000153312
0.000179124
0.000209169
0.000244101
0.000284658
0.00033167
0.000386062
0.000448854
0.000521158
0.000604163
0.000699122
0.000807312
0.000929991
0.00106833
0.00122333
0.0013957
0.0015857
0.00179305
0.00201666
0.00225451
0.00250348
0.00275922
0.00301611
0.00326735
0.00350516
0.00372114
0.0039068
0.00405421
0.00415661
0.00420911
0.00420911
0.00415661
0.00405421
0.0039068
0.00372114
0.00350516
0.00326735
0.00301611
0.00275922
0.00250348
0.00225451
0.00201666
0.00179305
0.0015857
0.0013957
0.00122333
0.00106833
0.000929991
0.000807312
0.000699122
0.000604163
0.000521158
0.000448854
0.000386062
0.00033167
0.000284658
0.000244101
0.000209169
0.000179124
0.000153312
0.000131159
0.000112163
9.58862e-05
8.19478e-05
7.00182e-05
5.98127e-05
5.10856e-05
4.36251e-05
3.72493e-05
3.18018e-05
3.13203e-05
3.66854e-05
4.29647e-05
5.03123e-05
5.89073e-05